<?xml version="1.0"?>
<VTKFile type="UnstructuredGrid"  version="0.1"  >
<UnstructuredGrid>
<Piece  NumberOfPoints="6146" NumberOfCells="11816">
<Points>
<DataArray  type="Float64"  NumberOfComponents="3"  format="ascii">0 0 0  0 0.41 0  2.2 0 0  2.2 0.41 0  0.2 0.25 0  0.25 0.2 0  0.2 0.15 0  0.15 0.2 0  0 0.4000000000000008 0  0 0.3900000000000259 0  0 0.3800000000000606 0  0 0.3700000000000953 0  0 0.3600000000001082 0  0 0.3500000000001241 0  0 0.3400000000001558 0  0 0.3300000000001905 0  0 0.3200000000002133 0  0 0.3100000000002381 0  0 0.3000000000002728 0  0 0.2900000000003075 0  0 0.2800000000003204 0  0 0.2700000000003551 0  0 0.2600000000003897 0  0 0.2500000000004243 0  0 0.2400000000004419 0  0 0.2300000000004503 0  0 0.2200000000004849 0  0 0.2100000000005195 0  0 0.2000000000005203 0  0 0.1900000000004874 0  0 0.1800000000004544 0  0 0.1700000000004476 0  0 0.1600000000004316 0  0 0.1500000000003986 0  0 0.1400000000003795 0  0 0.1300000000003759 0  0 0.1200000000003428 0  0 0.1100000000003098 0  0 0.1000000000002768 0  0 0.09000000000024383 0  0 0.08000000000021068 0  0 0.07000000000020096 0  0 0.0600000000001879 0  0 0.05000000000015475 0  0 0.04000000000012166 0  0 0.03000000000008857 0  0 0.02000000000005536 0  0 0.01000000000002221 0  0.01007679662828254 0 0  0.02056899213655081 0 0  0.03149370747042262 0 0  0.04286877787651972 0 0  0.05471276293192491 0 0  0.06704499828634325 0 0  0.07988560641938237 0 0  0.09325554633647967 0 0  0.1071766410311884 0 0  0.1216716067611488 0 0  0.1367641016067741 0 0  0.152478764481749 0 0  0.1688412308389146 0 0  0.1858782107385222 0 0  0.2036175120042742 0 0  0.2220880805924512 0 0  0.2413200720246992 0 0  0.2613448680153237 0 0  0.2821951505493904 0 0  0.303904948281349 0 0  0.3265096961752511 0 0  0.350046282509153 0 0  0.3745531279755512 0 0  0.4000702232727447 0 0  0.4266392157867663 0 0  0.4543034693483497 0 0  0.4831081324012234 0 0  0.5131002188568834 0 0  0.54432867931559 0 0  0.5768444722696365 0 0  0.6107006746708104 0 0  0.6459525479050182 0 0  0.682657603414822 0 0  0.7208757746968344 0 0  0.7606694182609572 0 0  0.8021034816821726 0 0  0.8452455957902169 0 0  0.8901661663799046 0 0  0.9369385072466508 0 0  0.9856389585079668 0 0  1.036346998189458 0 0  1.089145397956563 0 0  1.144120312199143 0 0  1.201361473554013 0 0  1.260962300595225 0 0  1.323020078687202 0 0  1.387636074977323 0 0  1.45491573887162 0 0  1.524968897456634 0 0  1.597909863440663 0 0  1.673857723466354 0 0  1.752936382158491 0 0  1.835274909595432 0 0  1.921007725838496 0 0  2.010274709627921 0 0  2.103221572060948 0 0  2.2 0.08199999999981657 0  2.2 0.1639999999995688 0  2.2 0.2459999999995603 0  2.2 0.327999999999785 0  2.103221572061646 0.41 0  2.010274709629372 0.41 0  1.921007725840496 0.41 0  1.835274909597994 0.41 0  1.752936382161568 0.41 0  1.673857723469928 0.41 0  1.597909863444748 0.41 0  1.524968897461176 0.41 0  1.454915738876575 0.41 0  1.387636074982656 0.41 0  1.323020078692824 0.41 0  1.260962300601091 0.41 0  1.201361473560091 0.41 0  1.144120312205409 0.41 0  1.089145397962884 0.41 0  1.036346998195403 0.41 0  0.9856389585135474 0.41 0  0.9369385072518699 0.41 0  0.8901661663847817 0.41 0  0.845245595794772 0.41 0  0.802103481686421 0.41 0  0.760669418264917 0.41 0  0.7208757747005239 0.41 0  0.6826576034182545 0.41 0  0.6459525479082096 0.41 0  0.6107006746737729 0.41 0  0.5768444722723829 0.41 0  0.5443286793181334 0.41 0  0.5131002188592353 0.41 0  0.483108132403395 0.41 0  0.4543034693503529 0.41 0  0.4266392157886099 0.41 0  0.4000702232744378 0.41 0  0.3745531279771039 0.41 0  0.3500462825105728 0.41 0  0.3265096961765468 0.41 0  0.3039049482825278 0.41 0  0.2821951505504596 0.41 0  0.2613448680163102 0.41 0  0.2413200720256172 0.41 0  0.2220880805933043 0.41 0  0.2036175120050649 0.41 0  0.1858782107392414 0.41 0  0.1688412308395617 0.41 0  0.1524787644823298 0.41 0  0.1367641016072927 0.41 0  0.1216716067615997 0.41 0  0.1071766410315749 0.41 0  0.09325554633680744 0.41 0  0.07988560641965403 0.41 0  0.06704499828656418 0.41 0  0.05471276293210092 0.41 0  0.04286877787665544 0.41 0  0.03149370747052016 0.41 0  0.02056899213661323 0.41 0  0.01007679662831285 0.41 0  0.2009941093832422 0.2499901164885035 0  0.2019878257548352 0.2499604698613656 0  0.2029807562584742 0.2499110718390977 0  0.2039725083485626 0.2498419419507366 0  0.2049626899453778 0.2497531075261239 0  0.2059509095900689 0.2496446036851018 0  0.2069367765994233 0.2495164733236293 0  0.2079199012203332 0.2493687670968211 0  0.208899894783849 0.2492015433989262 0  0.209876369858873 0.2490148683402368 0  0.2108489404052936 0.2488088157209575 0  0.2118172219266183 0.248583467002027 0  0.2127808316219855 0.248338911272912 0  0.2137393885375067 0.2480752452163837 0  0.2146925137168532 0.2477925730703012 0  0.2156398303510693 0.247491006586403 0  0.2165809639275547 0.2471706649861239 0  0.2175155423781385 0.2468316749134561 0  0.2184431962261471 0.2464741703848905 0  0.2193635587324768 0.2460982927364335 0  0.2202762660405913 0.2457041905677276 0  0.2211809573203641 0.2452920196833053 0  0.2220772749107273 0.2448619430309942 0  0.2229648644610677 0.2444141306374986 0  0.2238433750713457 0.2439487595411649 0  0.2247124594307593 0.2434660137220228 0  0.2255717739550953 0.2429660840290282 0  0.2264209789225549 0.2424491681046155 0  0.227259738608055 0.2419154703065648 0  0.2280877214159585 0.2413652016272072 0  0.2289046000111568 0.2407985796100187 0  0.2297100514485014 0.2402158282636004 0  0.2305037573004443 0.2396171779731418 0  0.2312854037829426 0.2390028654093291 0  0.2320546818795267 0.2383731334347658 0  0.2328112874634348 0.2377282310079845 0  0.2335549214178666 0.2370684130850081 0  0.2342852897542382 0.2363939405185524 0  0.23500210372839 0.2357050799549172 0  0.2357050799547543 0.2350021037285561 0  0.236393940518396 0.2342852897544042 0  0.2370684130848552 0.2335549214180355 0  0.2377282310078377 0.2328112874636036 0  0.2383731334346237 0.2320546818796969 0  0.2390028654091947 0.2312854037831102 0  0.2396171779730177 0.2305037573006055 0  0.2402158282634863 0.2297100514486559 0  0.2407985796099098 0.2289046000113105 0  0.2413652016271038 0.2280877214161108 0  0.2419154703064672 0.2272597386082051 0  0.2424491681045289 0.2264209789226942 0  0.2429660840289533 0.2255717739552211 0  0.2434660137219522 0.2247124594308835 0  0.2439487595410967 0.2238433750714713 0  0.2444141306374335 0.2229648644611936 0  0.2448619430309386 0.2220772749108404 0  0.2452920196832561 0.2211809573204692 0  0.2457041905676833 0.2202762660406911 0  0.2460982927363924 0.2193635587325747 0  0.246474170384854 0.2184431962262392 0  0.2468316749134214 0.2175155423782314 0  0.2471706649860917 0.216580963927646 0  0.2474910065863757 0.215639830351152 0  0.2477925730702761 0.2146925137169349 0  0.2480752452163603 0.2137393885375889 0  0.2483389112728914 0.2127808316220633 0  0.248583467002012 0.2118172219266803 0  0.2488088157209458 0.2108489404053462 0  0.2490148683402261 0.2098763698589259 0  0.249201543398917 0.2088998947838999 0  0.2493687670968142 0.2079199012203759 0  0.2495164733236233 0.2069367765994661 0  0.2496446036850975 0.205950909590105 0  0.2497531075261207 0.2049626899454101 0  0.2498419419507343 0.2039725083485922 0  0.2499110718390968 0.2029807562584889 0  0.2499604698613655 0.2019878257548365 0  0.2499901164885035 0.2009941093832422 0  0.2499901164885035 0.1990058906167579 0  0.2499604698613656 0.1980121742451648 0  0.2499110718390977 0.1970192437415259 0  0.2498419419507366 0.1960274916514374 0  0.2497531075261239 0.1950373100546222 0  0.2496446036851018 0.1940490904099311 0  0.2495164733236293 0.1930632234005767 0  0.2493687670968211 0.1920800987796668 0  0.2492015433989262 0.191100105216151 0  0.2490148683402368 0.190123630141127 0  0.2488088157209575 0.1891510595947065 0  0.248583467002027 0.1881827780733817 0  0.248338911272912 0.1872191683780146 0  0.2480752452163837 0.1862606114624933 0  0.2477925730703012 0.1853074862831468 0  0.247491006586403 0.1843601696489307 0  0.2471706649861239 0.1834190360724454 0  0.2468316749134561 0.1824844576218615 0  0.2464741703848905 0.181556803773853 0  0.2460982927364335 0.1806364412675232 0  0.2457041905677276 0.1797237339594087 0  0.2452920196833053 0.1788190426796359 0  0.2448619430309942 0.1779227250892727 0  0.2444141306374986 0.1770351355389324 0  0.2439487595411649 0.1761566249286543 0  0.2434660137220228 0.1752875405692407 0  0.2429660840290282 0.1744282260449047 0  0.2424491681046155 0.1735790210774451 0  0.2419154703065648 0.172740261391945 0  0.2413652016272072 0.1719122785840415 0  0.2407985796100187 0.1710953999888432 0  0.2402158282636004 0.1702899485514986 0  0.2396171779731418 0.1694962426995557 0  0.2390028654093291 0.1687145962170574 0  0.2383731334347658 0.1679453181204733 0  0.2377282310079845 0.1671887125365652 0  0.2370684130850081 0.1664450785821334 0  0.2363939405185524 0.1657147102457618 0  0.2357050799549172 0.16499789627161 0  0.2350021037285561 0.1642949200452457 0  0.2342852897544042 0.1636060594816041 0  0.2335549214180355 0.1629315869151449 0  0.2328112874636036 0.1622717689921623 0  0.2320546818796969 0.1616268665653763 0  0.2312854037831102 0.1609971345908053 0  0.2305037573006055 0.1603828220269823 0  0.2297100514486559 0.1597841717365137 0  0.2289046000113105 0.1592014203900902 0  0.2280877214161108 0.1586347983728962 0  0.2272597386082051 0.1580845296935329 0  0.2264209789226942 0.1575508318954712 0  0.2255717739552211 0.1570339159710467 0  0.2247124594308835 0.1565339862780478 0  0.2238433750714713 0.1560512404589033 0  0.2229648644611936 0.1555858693625665 0  0.2220772749108404 0.1551380569690615 0  0.2211809573204692 0.1547079803167439 0  0.2202762660406911 0.1542958094323167 0  0.2193635587325747 0.1539017072636076 0  0.2184431962262392 0.153525829615146 0  0.2175155423782314 0.1531683250865786 0  0.216580963927646 0.1528293350139083 0  0.215639830351152 0.1525089934136243 0  0.2146925137169349 0.1522074269297239 
[...]
<PointData  Scalars="f_19"> 
<DataArray  type="Float64"  Name="f_19"  format="ascii">4.8461476100942574e-01  4.4823827460867827e-01  0.0000000000000000e+00  0.0000000000000000e+00  -1.0063624599768990e+00  -4.6889808065372623e-01  -9.1532457553423019e-01  1.9482505997923882e+00  4.4813411229686201e-01  4.4868074569023597e-01  4.5055219115233847e-01  4.5447544546149943e-01  4.6096998036628428e-01  4.7047891326893182e-01  4.8333661585996873e-01  4.9971346473779477e-01  5.1962181575075461e-01  5.4289681935778900e-01  5.6919972325688895e-01  5.9807556105714565e-01  6.2847000674891185e-01  6.5958131911413587e-01  6.9047923070049178e-01  7.1937415273021443e-01  7.4521308756195670e-01  7.6701959682991827e-01  7.8301902567615267e-01  7.9255635496441068e-01  7.9500495701217144e-01  7.9101608538840162e-01  7.7998925665057361e-01  7.6320852970078013e-01  7.4085548953235925e-01  7.1501586344626122e-01  6.8691514850302571e-01  6.5746615748074999e-01  6.2835720953428187e-01  6.0065199083456766e-01  5.7498037528078905e-01  5.5218847044177910e-01  5.3282831817674459e-01  5.1690279494051117e-01  5.0459491789725164e-01  4.9569624263697631e-01  4.8970453976039974e-01  4.8635652559709608e-01  4.8479318701643592e-01  4.8455659063680506e-01  4.8410507402122693e-01  4.8351322129151914e-01  4.8260958008526372e-01  4.8117960469447163e-01  4.7905318837500388e-01  4.7570400774676225e-01  4.7087716717214873e-01  4.6359163354213478e-01  4.5366925976926342e-01  4.3873493203482039e-01  4.1888351926682310e-01  3.9224891019590974e-01  3.5939808934802825e-01  3.1995959428187881e-01  2.7483294388805574e-01  2.2683685606473675e-01  1.7962317537400932e-01  1.3533385607198964e-01  9.3594216717548001e-02  6.3324490391343774e-02  3.4982234881575210e-02  1.6169005131881801e-02  -2.2470428305491567e-03  -1.3080250454244104e-02  -1.6759539286177780e-02  1.5270723204665938e-03  4.6269874300708842e-02  1.2189932159402417e-01  2.1126786121542995e-01  2.9744902851622601e-01  3.4293207317001428e-01  3.5874282645372646e-01  3.2009567274874434e-01  2.5619067199792339e-01  1.9010973793690941e-01  1.3406273208249367e-01  7.0423213051896458e-02  4.2960381743594310e-02  1.0372227490829157e-01  2.1246911307046562e-01  2.6778492638008267e-01  2.4915184039615329e-01  1.7013063847490664e-01  6.0600264741290426e-02  -4.0004123156100781e-02  -3.5646312593428315e-03  1.6557203967884970e-01  2.5795107840684689e-01  9.1837124977726406e-02  -2.9416384028676336e-02  -7.5267530903906713e-02  6.4919559917033423e-02  1.2838143496225676e-01  2.6745706087066279e-02  -7.8390518493651626e-02  -1.0197824736325266e-01  0.0000000000000000e+00  0.0000000000000000e+00  0.0000000000000000e+00  0.0000000000000000e+00  8.8822831970845659e-02  1.4361000514437808e-01  -2.1776199730800947e-02  -5.6752620503148228e-02  3.2442513794376057e-02  1.4848019074945110e-01  1.4489956686506344e-01  3.7336476614305475e-02  -6.3465326363787475e-02  4.3230929411375560e-02  1.9156941547824446e-01  2.5279742388754212e-01  2.0991401645656493e-01  7.6683367836734836e-02  -5.3200238788537304e-03  5.0375543788261951e-02  1.4203901900463597e-01  2.0506545571174192e-01  2.6040912407270728e-01  2.8182197624873045e-01  2.6055330449718106e-01  2.0778406406955091e-01  1.4338010576165536e-01  9.0107957390285431e-02  5.3148095252734472e-02  3.7468828356874338e-02  6.7752849330374648e-02  1.2452537321380600e-01  1.8306233744456030e-01  2.2328100636524797e-01  2.3942794085848904e-01  2.3047236238437929e-01  2.1125788257670275e-01  1.8137842039852836e-01  1.5308651833780046e-01  1.3270353755328537e-01  1.2004210847997086e-01  1.2314069905405917e-01  1.3752508990367485e-01  1.6223422000266155e-01  1.9304259247352221e-01  2.3001772855915589e-01  2.6644777680521592e-01  3.0188763037422273e-01  3.3312071135367638e-01  3.6038746242373126e-01  3.8278030447411338e-01  4.0090729199527186e-01  4.1457310042688095e-01  4.2529126832024317e-01  4.3321206952858515e-01  4.3884338799494615e-01  4.4279090074694638e-01  4.4534735718291879e-01  4.4687113403773199e-01  4.4770644532364062e-01  -9.9501906498689230e-01  -9.8317483931238958e-01  -9.7075549951314866e-01  -9.5784342267789591e-01  -9.4445441432931576e-01  -9.3095806119078828e-01  -9.1696685213423246e-01  -9.0299318273880513e-01  -8.8901598652036451e-01  -8.7461939029520652e-01  -8.6140032663210542e-01  -8.4736291390484986e-01  -8.3390981607679504e-01  -8.2087058614454900e-01  -8.0815181043143036e-01  -7.9553990845709566e-01  -7.8362824433536882e-01  -7.7193340849106695e-01  -7.6077718779271319e-01  -7.5002721814269224e-01  -7.3984262085820895e-01  -7.3000745443015069e-01  -7.2069201842573671e-01  -7.1181671940777869e-01  -7.0341570969885836e-01  -6.9548918989918129e-01  -6.8798717775253382e-01  -6.8093278560945869e-01  -6.7424194642211610e-01  -6.6792277464066407e-01  -6.6189808005918038e-01  -6.5619135943742501e-01  -6.5072311757219736e-01  -6.4549577834309690e-01  -6.4042284733275245e-01  -6.3550030424994908e-01  -6.3064079911139104e-01  -6.2583934196537494e-01  -6.2107190442849314e-01  -6.1627504126543076e-01  -6.1145670130804886e-01  -6.0654938697854865e-01  -6.0157830995404504e-01  -5.9648681343608412e-01  -5.9131542511324542e-01  -5.8600419224254718e-01  -5.8060792426941499e-01  -5.7507938771663036e-01  -5.6948417227143244e-01  -5.6379323249898505e-01  -5.5808454590659984e-01  -5.5230488338420936e-01  -5.4655171150522341e-01  -5.4079420113551369e-01  -5.3512205394611612e-01  -5.2951166517717019e-01  -5.2405188708393058e-01  -5.1871031978504112e-01  -5.1355572551336581e-01  -5.0858075743479303e-01  -5.0387214562771476e-01  -4.9938683120492039e-01  -4.9517663413231411e-01  -4.9133210541580258e-01  -4.8779461461883383e-01  -4.8455728049245000e-01  -4.8163104682704516e-01  -4.7900270548437329e-01  -4.7664994379629610e-01  -4.7473380829252121e-01  -4.7308664638298870e-01  -4.7178404668689633e-01  -4.7068278608698588e-01  -4.6995294477882577e-01  -4.6933693344991584e-01  -4.6896277272328629e-01  -4.6882349579934846e-01  -4.6880352780731455e-01  -4.6907559943266330e-01  -4.6931282303526101e-01  -4.6960726617205933e-01  -4.6988793134373869e-01  -4.7011880283135410e-01  -4.7031388328847901e-01  -4.7042688008502326e-01  -4.7042226458622982e-01  -4.7032337134711544e-01  -4.7007871164850878e-01  -4.6970081136174369e-01  -4.6915854883220431e-01  -4.6847639857208861e-01  -4.6763208049723792e-01  -4.6663075256449210e-01  -4.6550875796060726e-01  -4.6422354028379798e-01  -4.6284622582242330e-01  -4.6134315520827385e-01  -4.5975146165261815e-01  -4.5808759321472542e-01  -4.5636429915614479e-01  -4.5460927075164664e-01  -4.5283595427030532e-01  -4.5111164052738689e-01  -4.4942259903970538e-01  -4.4783070577512180e-01  -4.4635150709845856e-01  -4.4500374390508268e-01  -4.4385626378969395e-01  -4.4293073970773872e-01  -4.4227497802149524e-01  -4.4192686643196205e-01  -4.4191001127347751e-01  -4.4227930123567361e-01  -4.4305536393698786e-01  -4.4426115224866919e-01  -4.4594147337825663e-01  -4.4811539428404784e-01  -4.5078238015070954e-01  -4.5395922387529053e-01  -4.5763345389762550e-01  -4.6182151079071698e-01  -4.6652073732074800e-01  -4.7173387336503819e-01  -4.7741876025231272e-01  -4.8360733296861358e-01  -4.9024007067270664e-01  -4.9739596346515597e-01  -5.0500525853158917e-01  -5.1302170773248612e-01  -5.2151851357497137e-01  -5.3065626091483276e-01  -5.4016958423535921e-01  -5.5008770114383032e-01  -5.6064453067517450e-01  -5.7178269558173889e-01  -5.8335307443380946e-01  -5.9535266603578918e-01  -6.0807277871931609e-01  -6.2126390113369867e-01  -6.3503379661605930e-01  -6.4946622709645319e-01  -6.6423100490541165e-01  -6.7934490134583658e-01  -6.9512665015331243e-01  -7.1141768109179238e-01  -7.2789449867882394e-01  -7.4486121797783178e-01  -7.6197867188873680e-01  -7.7933912502292002e-01  -7.9673066236358914e-01  -8.1430535837616114e-01  -8.3186987535196211e-01  -8.4929524435629022e-01  -8.6640421539838441e-01  -8.8317520611208578e-01  -8.9946968046348785e-01  -9.3048344770530322e-01  -9.4491460121860105e-01  -9.5834302006567573e-01  -9.7035555351986924e-01  -9.8148486954454039e-01  -9.9174646141231249e-01  -1.0001787438894389e+00  -1.0070697582992778e+00  -1.0123060624029290e+00  -1.0158779493062271e+00  -1.0176220411461823e+00  -1.0172998102548982e+00  -1.0149662991412631e+00  -1.0103568575083410e+00  -1.0035606307458116e+00  -9.9435969797278023e-01  -9.8290433271042121e-01  -9.6882936823480514e-01  -9.5252522893710179e-01  -9.3366182569862466e-01  -9.1232107484500469e-01  -8.8834523271600485e-01  -8.6137219852712921e-01  -8.3224134855856946e-01  -8.0057850282429655e-01  -7.6605852640126448e-01  -7.2989778383657167e-01  -6.8997345547292732e-01  -6.4824936802097599e-01  -6.0419991722600042e-01  -5.5772986205272979e-01  -5.0877028640179145e-01  -4.5795696362531113e-01  -4.0491656801446679e-01  -3.4964021096655740e-01  -2.9276415303669218e-01  -2.3379189448358731e-01  -1.7358563721272890e-01  -1.1160709735189515e-01  -4.7856853241887702e-02  1.7023517394835520e-02  8.2796180155791724e-02  1.4993733545898294e-01  2.1800804863436163e-01  2.8654679068242894e-01  3.5585706046027099e-01  4.2544267798430052e-01  4.9522787925026895e-01  5.6535700360858676e-01  6.3539831217575315e-01  7.0519751855937740e-01  7.7449106640263532e-01  8.4339582923005263e-01  9.1138365402530708e-01  9.7866016858019123e-01  1.0449509426180481e+00  1.1100174865393968e+00  1.1732659711667066e+00  1.2355944718446643e+00  1.2958085153646499e+00  1.3540273259315889e+00  1.4106524161907483e+00  1.4650825233466833e+00  1.5170971646419604e+00  1.5665964173207581e+00  1.6137924469264295e+00  1.6584353749633400e+00  1.6998782364888163e+00  1.7387779225874589e+00  1.7745458324987071e+00  1.8072505814622659e+00  1.8367679788442755e+00  1.8631120066262814e+00  1.8857518622542722e+00  1.9052469359533468e+00  1.9212446906525040e+00  1.9342770674863776e+00  1.9430022677477370e+00  1.9503179300296292e+00  1.9486773572553051e+00  1.9435385876961304e+00  1.9348744474944553e+00  1.9225921984831356e+00  1.9069548371454297e+00  1.8872903631362865e+00  1.8646416093217726e+00  1.8387200943969493e+00  1.8094644891925382e+00  1.7771312569251749e+00  1.7414737453528564e+00  1.7031081511133415e+00  1.6618735904202264e+00  1.6175416818132318e+00  1.5707918540011152e+00  1.5211693383213321e+00  1.4692411838325667e+00  1.4149615067803956e+00  1.3581044435781622e+00  1.3003133311670860e+00  1.2401746911207279e+00  1.1778705394890172e+00  1.1144093031971027e+00  1.0493754161613085e+00  9.8331070319210057e-01  9.1595735428324387e-01  8.4769058031503530e-01  7.7906134157857077e-01  7.0937508951448602e-01  6.3941375168891057e-01  5.6940177800930281e-01  4.9912042154937636e-01  4.2886122171690899e-01  3.5888198000837873e-01  2.8948386094331252e-01  2.2042708441114975e-01  1.5199193914673828e-01  8.4422812292311994e-02  1.8189085328756380e-02  -4.7072975253034513e-02  -1.1124131988789185e-01  -1.7371263028683925e-01  -2.3495684753730395e-01  -2.9464148221486869e-01  -3.5224211719422288e-01  -4.0780347041347437e-01  -4.6182905684272707e-01  -5.1353792792463138e-01  -5.6330535233784484e-01  -6.1062347703718933e-01  -6.5570492361652966e-01  -6.9856559290429432e-01  -7.3895089357833177e-01  -7.7688556937138165e-01  -8.1296980139894193e-01  -8.4526631571235444e-01  -8.7594929898925078e-01  -9.0394180894949638e-01  -9.2951926761222292e-01  -9.5244371596867405e-01  -9.7293611840097538e-01  -9.9136142726257648e-01  -1.0069259036281659e+00  -1.0202710182207930e+00  -1.0312308309631080e+00  -1.0401006340310501e+00  -1.0467514844175816e+00  -1.0513618631967381e+00  -1.0541730378530998e+00  -1.0547511428037404e+00  -1.0537677723486509e+00  -1.0511155970489054e+00  -1.0461410272665419e+00  -1.0415103912515795e+00  -1.0338594070147427e+00  -1.0256772770960134e+00  -1.0164281576514063e+00  5.0104880204941971e-01  1.8777991791459850e-01  9.2829348111672316e-01  8.8832193813284666e-01  4.4979408186920200e-01  -6.7735085711778706e-02  2.6884824055790529e-01  1.4761426888203641e-01  -1.5399872209236332e-01  -9.4531687349234050e-01  6.9901031596501095e-01  1.8931172573379276e-01  7.3195649220935222e-01  1.8592607039172787e-01  -3.1389788501025506e-01  1.2997982390297094e+00  1.2654703133162279e+00  -2.3298511615809889e-01  -4.2744136262942178e-01  1.1769499949180617e+00  -6.0219566868941032e-01  -5.3085195804929608e-01  -1.8552647615896214e-01  -2.8130456978790797e-01  -4.1410454135931951e-01  4.2870788251272168e-01  7.4377848645209121e-01  1.2221215230977565e-01  -2.9054235095671754e-01  1.6222505334489949e+00  -1.5920008948240136e-01  -4.9649047936120289e-01  9.7845138605268966e-01  1.5835601004376250e+00  -6.1467834674947974e-01  1.5295299967785867e+00  -6.4267540671637413e-01  -6.1797339152370934e-01  1.1971370781538129e+00  -4.6408859733310254e-01  -4.4346911098173486e-01  -3.9081912000603769e-01  -4.8308032910939741e-01  -5.8326816535577197e-01  -5.0591576163528151e-01  -5.9818240160953440e-01  4.6561298616098346e-01  -7.9907126658941535e-02  2.6940191901802940e-01  9.4388956163114202e-01  -4.7643271373785911e-01  -4.3303151887249092e-01  1.8028468530702724e+00  1.2354072409456449e+00  6.9635705363863210e-01  -2.6328766896488592e-01  -5.6809411661350995e-01  5.6900035314271336e-01  -7.6724153331195843e-01  -6.8583660783156319e-01  -5.8006198420964750e-01  1.8115290153028849e+00  -6.5965148852203115e-01  -5.0375040574958396e-01  -4.3678046247578584e-01  -5.3636997510064166e-01  -8.1589613840837405e-01  5.6052380372151288e-02  1.5111277884327374e+00  7.7850394687650049e-01  6.3213780849528400e-01  -5.2705258293723012e-01  -4.2847496178294769e-01  -7.3862365527671214e-01  -6.4980974840806538e-01  -4.9054586929695365e-01  -6.2471807396477341e-01  -5.9445860275142215e-01  -8.8673018224141287e-01  9.9678130664948184e-02  1.7553826750215364e+00  4.8149038211429590e-01  -4.3875479926421984e-01  -4.5946656543148806e-01  -8.4151202941030157e-01  -8.5266908858973400e-01  1.5214498380311305e+00  -4.7513760997176330e-01  7.0495465058008622e-01  1.2124884249967602e+00  -7.0048781851594488e-01  4.6044225313472159e-01  3.6403476809290414e-01  6.7094062977964053e-01  6.6914809440864309e-02  1.0963707288931392e+00  9.4910077948918825e-01  -5.5904498292858007e-01  7.9041724197724850e-01  1.1432612238947268e+00  8.1206748611537027e-01  -8.1928132860045044e-01  -4.5286457483082065e-01  -2.6384889656725485e-02  3.0183830008863505e-01  -7.9073785696812823e-02  -6.1778395567317312e-01  7.0421150143946121e-01  -4.7537234612540236e-01  -4.6945400348877581e-01  4.0290960902515500e-02  4.7174769221288881e-01  9.2292729688212649e-01  4.0845551831508786e-02  3.9139413492846342e-01  1.8837297379392421e+00  4.2913652110448891e-01  -1.3890466383192401e-01  9.4003142731117456e-02  -4.5130550569003763e-01  1.7122730100189716e+00  2.9561993698921096e-01  -6.7382740686434694e-01  4.3841882448761238e-01  9.7444037145808737e-01  -8.4970848786032349e-01  -4.5221059040860734e-01  -8.1528385674181503e-01  -1.1625137554539998e-01  1.4640183365215738e+00  8.5657859713425943e-01  -5.2722144410311700e-01  -5.0019765309550102e-01  -5.6141552474902690e-01  1.0396218207621561e+00  -3.8229003599388794e-01  -9.6127929894685715e-01  1.3505960834619228e+00  -3.7499110283768988e-01  -8.1423318462625338e-01  4.7911308805403557e-01  -9.3981598534293731e-01  -9.3704213970228323e-01  1.2511654462016102e+00  1.0677730635067393e+00  -7.6370238030319249e-01  4.9638461636542180e-01  3.1785041041000481e-02  -7.6497871369215464e-01  -5.6515303279126305e-01  7.4690444567880310e-01  9.0259191232708580e-01  1.6354872464477113e+00  1.8662037287480853e+00  1.3240252100720111e+00  3.0252386637256651e-01  5.5889406383151936e-02  -1.0828009058231637e-01  4.5484058195001353e-01  -3.2230384453100225e-01  -4.4145016649557395e-01  -4.3972692212652370e-01  -3.2105387140817038e-01  6.1653015535508582e-01  -6.4920674227529973e-01  -6.8019861381797619e-01  -2.4579089792976708e-01  -4.9748211010892379e-01  1.4216921085271874e+00  5.3937183819981982e-01  5.3791646202009102e-01  -9.3911361428301754e-01  1.4774493298404991e+00  -6.0820921642518744e-01  -4.8430254418473739e-01  4.2226743790814841e-01  1.8714657997424042e+00  4.6892480549686794e-01  1.3542756104486995e-02  1.6485805063072074e+00  -8.3117323225333994e-01  7.5897849178994692e-01  7.5412072630604954e-01  -4.6256321074233248e-01  7.0828155780104374e-01  8.2364108563518990e-01  1.0325788772598357e+00  -5.2284407963663604e-01  -5.3999012365624377e-01  -6.9472663278069957e-01  -1.0838405452253981e-01  4.4852406696942165e-01  1.0035999651656207e+00  -6.3250235929968179e-01  1.2656373956963578e+00  5.4253634173402687e-01  1.6514254417924592e+00  -5.0791345901252394e-01  2.1210218212297693e-01  2.4187940593638393e-01  6.4071460020627150e-02  -5.4183123457271376e-01  -2.5585543777582674e-02  9.2350930483683813e-01  2.9684798019943520e-01  -5.7484638453655412e-01  -1.0000743777718897e+00  -9.6160353792524467e-01  5.4521783489162556e-01  6.0234737947290551e-01  -6.3378867190080945e-01  -9.0451293990978299e-01  -7.2934609329210276e-01  -4.5787667169247892e-01  3.8866343117006219e-01  1.4171886752296505e+00  -5.2619453723325893e-01  7.6774119691474818e-01  -1.4783536744690720e-01  1.3758983584426505e+00  6.7975470503014157e-01  -4.4386425622979631e-01  -4.5034722395413579e-01  8.0159907489661508e-01  -6.2041345484791111e-01  1.7436426174879371e+00  2.5561434499923746e-02  -9.0720181361321961e-01  -4.7152572077419963e-01  1.8932968283619164e-01  -1.2295188686603951e-01  -4.7580374723173352e-01  3.1569216756733803e-01  9.0613991497649912e-02  1.1356001832579870e+00  1.0175031599804829e+00  1.1494052182796148e-01  6.9041917038973788e-01  9.3037052050589553e-01  2.7659065772165581e-01  1.5800797639477049e+00  1.2520079337050685e-01  1.7896216684769213e+00  6.9217060638646710e-01  -6.1607488066139859e-01  1.9839034837724046e-01  -4.9082240109590891e-01  3.0210600126785581e-01  1.4611993913039407e+00  -4.6772067774830833e-01  1.6738209140933937e+00  1.1241878363470355e+00  2.1219250300492648e-01  -6.2429802752636987e-01  -5.4541177398982998e-01  1.0973998726690726e+00  -4.0031103712067584e-01  -5.5156858338305303e-01  7.2320440265716004e-02  3.7885145283766164e-01  -1.6152284368608789e-02  1.9048031573628788e-01  8.3790792509395173e-01  -7.7474861764211547e-02  7.5311766360455434e-01  8.1322347406300477e-01  -2.8616976688121332e-01  1.9124185847157507e+00  -4.6714541995017367e-01  8.8581987278170327e-01  -4.8177087896632137e-02  -3.4126850330194869e-01  6.5152479470826849e-03  2.0033633799902184e-01  5.9022569922138479e-01  4.2278324413063351e-01  -3.0066718149506072e-01  -2.8250186050239334e-01  7.7276428604138558e-01  1.2530877578618660e+00  -5.4516589659602910e-01  1.8231293531144097e+00  5.2801414625378289e-02  -4.5091812603875886e-01  7.9802190757812169e-02  5.5891782010964530e-01  9.9260210213706757e-01  1.3813110314663715e-01  -5.9429928903019391e-01  1.0234420330026925e+00  4.3210980733774523e-01  3.4633268241889881e-01  6.7324521930271675e-01  2.8219084402899380e-01  -6.7465139986481526e-01  9.5087283125984090e-01  1.0716128241966574e+00  -5.0142346305042129e-01  4.9561778066338497e-01  1.7117900832767399e+00  -5.0722526319415717e-01  -7.2953467192334420e-01  -8.2919832705128449e-01  9.9063463696859866e-01  -4.5840248669955547e-01  1.3939263065433076e+00  5.8930598771033427e-01  -4.1030508573577901e-01  -5.4208662243288130e-01  -9.2204104309414880e-01  -7.7876847308158281e-01  -6.8338591981461222e-02  -8.4859464410078145e-01  -9.3973527671179879e-01  5.8867668841237164e-01  -1.8536582103718055e-01  2.1788066169709039e-01  1.1403327426631507e+00  8.8064306035040540e-01  1.2141151788294855e+00  -1.1136282384321987e-01  1.2065663451418083e+00  1.4303057566443480e+00  4.8353978156015265e-01  4.7667720934438396e-01  4.7411664334048009e-01  2.3003789550462755e-02  -4.4905872332401464e-01  -4.1211382744595337e-01  1.9174183961731743e+00  -3.7943484535604832e-01  -6.0976149601510499e-01  6.2090281535204983e-01  -2.0478526884688066e-02  -9.7105254075150957e-02  -2.2139379289894476e-01  -4.9047622250193995e-