<?xml version="1.0"?>
<VTKFile type="UnstructuredGrid"  version="0.1"  >
<UnstructuredGrid>
<Piece  NumberOfPoints="6146" NumberOfCells="11816">
<Points>
<DataArray  type="Float64"  NumberOfComponents="3"  format="ascii">0 0 0  0 0.41 0  2.2 0 0  2.2 0.41 0  0.2 0.25 0  0.25 0.2 0  0.2 0.15 0  0.15 0.2 0  0 0.4000000000000008 0  0 0.3900000000000259 0  0 0.3800000000000606 0  0 0.3700000000000953 0  0 0.3600000000001082 0  0 0.3500000000001241 0  0 0.3400000000001558 0  0 0.3300000000001905 0  0 0.3200000000002133 0  0 0.3100000000002381 0  0 0.3000000000002728 0  0 0.2900000000003075 0  0 0.2800000000003204 0  0 0.2700000000003551 0  0 0.2600000000003897 0  0 0.2500000000004243 0  0 0.2400000000004419 0  0 0.2300000000004503 0  0 0.2200000000004849 0  0 0.2100000000005195 0  0 0.2000000000005203 0  0 0.1900000000004874 0  0 0.1800000000004544 0  0 0.1700000000004476 0  0 0.1600000000004316 0  0 0.1500000000003986 0  0 0.1400000000003795 0  0 0.1300000000003759 0  0 0.1200000000003428 0  0 0.1100000000003098 0  0 0.1000000000002768 0  0 0.09000000000024383 0  0 0.08000000000021068 0  0 0.07000000000020096 0  0 0.0600000000001879 0  0 0.05000000000015475 0  0 0.04000000000012166 0  0 0.03000000000008857 0  0 0.02000000000005536 0  0 0.01000000000002221 0  0.01007679662828254 0 0  0.02056899213655081 0 0  0.03149370747042262 0 0  0.04286877787651972 0 0  0.05471276293192491 0 0  0.06704499828634325 0 0  0.07988560641938237 0 0  0.09325554633647967 0 0  0.1071766410311884 0 0  0.1216716067611488 0 0  0.1367641016067741 0 0  0.152478764481749 0 0  0.1688412308389146 0 0  0.1858782107385222 0 0  0.2036175120042742 0 0  0.2220880805924512 0 0  0.2413200720246992 0 0  0.2613448680153237 0 0  0.2821951505493904 0 0  0.303904948281349 0 0  0.3265096961752511 0 0  0.350046282509153 0 0  0.3745531279755512 0 0  0.4000702232727447 0 0  0.4266392157867663 0 0  0.4543034693483497 0 0  0.4831081324012234 0 0  0.5131002188568834 0 0  0.54432867931559 0 0  0.5768444722696365 0 0  0.6107006746708104 0 0  0.6459525479050182 0 0  0.682657603414822 0 0  0.7208757746968344 0 0  0.7606694182609572 0 0  0.8021034816821726 0 0  0.8452455957902169 0 0  0.8901661663799046 0 0  0.9369385072466508 0 0  0.9856389585079668 0 0  1.036346998189458 0 0  1.089145397956563 0 0  1.144120312199143 0 0  1.201361473554013 0 0  1.260962300595225 0 0  1.323020078687202 0 0  1.387636074977323 0 0  1.45491573887162 0 0  1.524968897456634 0 0  1.597909863440663 0 0  1.673857723466354 0 0  1.752936382158491 0 0  1.835274909595432 0 0  1.921007725838496 0 0  2.010274709627921 0 0  2.103221572060948 0 0  2.2 0.08199999999981657 0  2.2 0.1639999999995688 0  2.2 0.2459999999995603 0  2.2 0.327999999999785 0  2.103221572061646 0.41 0  2.010274709629372 0.41 0  1.921007725840496 0.41 0  1.835274909597994 0.41 0  1.752936382161568 0.41 0  1.673857723469928 0.41 0  1.597909863444748 0.41 0  1.524968897461176 0.41 0  1.454915738876575 0.41 0  1.387636074982656 0.41 0  1.323020078692824 0.41 0  1.260962300601091 0.41 0  1.201361473560091 0.41 0  1.144120312205409 0.41 0  1.089145397962884 0.41 0  1.036346998195403 0.41 0  0.9856389585135474 0.41 0  0.9369385072518699 0.41 0  0.8901661663847817 0.41 0  0.845245595794772 0.41 0  0.802103481686421 0.41 0  0.760669418264917 0.41 0  0.7208757747005239 0.41 0  0.6826576034182545 0.41 0  0.6459525479082096 0.41 0  0.6107006746737729 0.41 0  0.5768444722723829 0.41 0  0.5443286793181334 0.41 0  0.5131002188592353 0.41 0  0.483108132403395 0.41 0  0.4543034693503529 0.41 0  0.4266392157886099 0.41 0  0.4000702232744378 0.41 0  0.3745531279771039 0.41 0  0.3500462825105728 0.41 0  0.3265096961765468 0.41 0  0.3039049482825278 0.41 0  0.2821951505504596 0.41 0  0.2613448680163102 0.41 0  0.2413200720256172 0.41 0  0.2220880805933043 0.41 0  0.2036175120050649 0.41 0  0.1858782107392414 0.41 0  0.1688412308395617 0.41 0  0.1524787644823298 0.41 0  0.1367641016072927 0.41 0  0.1216716067615997 0.41 0  0.1071766410315749 0.41 0  0.09325554633680744 0.41 0  0.07988560641965403 0.41 0  0.06704499828656418 0.41 0  0.05471276293210092 0.41 0  0.04286877787665544 0.41 0  0.03149370747052016 0.41 0  0.02056899213661323 0.41 0  0.01007679662831285 0.41 0  0.2009941093832422 0.2499901164885035 0  0.2019878257548352 0.2499604698613656 0  0.2029807562584742 0.2499110718390977 0  0.2039725083485626 0.2498419419507366 0  0.2049626899453778 0.2497531075261239 0  0.2059509095900689 0.2496446036851018 0  0.2069367765994233 0.2495164733236293 0  0.2079199012203332 0.2493687670968211 0  0.208899894783849 0.2492015433989262 0  0.209876369858873 0.2490148683402368 0  0.2108489404052936 0.2488088157209575 0  0.2118172219266183 0.248583467002027 0  0.2127808316219855 0.248338911272912 0  0.2137393885375067 0.2480752452163837 0  0.2146925137168532 0.2477925730703012 0  0.2156398303510693 0.247491006586403 0  0.2165809639275547 0.2471706649861239 0  0.2175155423781385 0.2468316749134561 0  0.2184431962261471 0.2464741703848905 0  0.2193635587324768 0.2460982927364335 0  0.2202762660405913 0.2457041905677276 0  0.2211809573203641 0.2452920196833053 0  0.2220772749107273 0.2448619430309942 0  0.2229648644610677 0.2444141306374986 0  0.2238433750713457 0.2439487595411649 0  0.2247124594307593 0.2434660137220228 0  0.2255717739550953 0.2429660840290282 0  0.2264209789225549 0.2424491681046155 0  0.227259738608055 0.2419154703065648 0  0.2280877214159585 0.2413652016272072 0  0.2289046000111568 0.2407985796100187 0  0.2297100514485014 0.2402158282636004 0  0.2305037573004443 0.2396171779731418 0  0.2312854037829426 0.2390028654093291 0  0.2320546818795267 0.2383731334347658 0  0.2328112874634348 0.2377282310079845 0  0.2335549214178666 0.2370684130850081 0  0.2342852897542382 0.2363939405185524 0  0.23500210372839 0.2357050799549172 0  0.2357050799547543 0.2350021037285561 0  0.236393940518396 0.2342852897544042 0  0.2370684130848552 0.2335549214180355 0  0.2377282310078377 0.2328112874636036 0  0.2383731334346237 0.2320546818796969 0  0.2390028654091947 0.2312854037831102 0  0.2396171779730177 0.2305037573006055 0  0.2402158282634863 0.2297100514486559 0  0.2407985796099098 0.2289046000113105 0  0.2413652016271038 0.2280877214161108 0  0.2419154703064672 0.2272597386082051 0  0.2424491681045289 0.2264209789226942 0  0.2429660840289533 0.2255717739552211 0  0.2434660137219522 0.2247124594308835 0  0.2439487595410967 0.2238433750714713 0  0.2444141306374335 0.2229648644611936 0  0.2448619430309386 0.2220772749108404 0  0.2452920196832561 0.2211809573204692 0  0.2457041905676833 0.2202762660406911 0  0.2460982927363924 0.2193635587325747 0  0.246474170384854 0.2184431962262392 0  0.2468316749134214 0.2175155423782314 0  0.2471706649860917 0.216580963927646 0  0.2474910065863757 0.215639830351152 0  0.2477925730702761 0.2146925137169349 0  0.2480752452163603 0.2137393885375889 0  0.2483389112728914 0.2127808316220633 0  0.248583467002012 0.2118172219266803 0  0.2488088157209458 0.2108489404053462 0  0.2490148683402261 0.2098763698589259 0  0.249201543398917 0.2088998947838999 0  0.2493687670968142 0.2079199012203759 0  0.2495164733236233 0.2069367765994661 0  0.2496446036850975 0.205950909590105 0  0.2497531075261207 0.2049626899454101 0  0.2498419419507343 0.2039725083485922 0  0.2499110718390968 0.2029807562584889 0  0.2499604698613655 0.2019878257548365 0  0.2499901164885035 0.2009941093832422 0  0.2499901164885035 0.1990058906167579 0  0.2499604698613656 0.1980121742451648 0  0.2499110718390977 0.1970192437415259 0  0.2498419419507366 0.1960274916514374 0  0.2497531075261239 0.1950373100546222 0  0.2496446036851018 0.1940490904099311 0  0.2495164733236293 0.1930632234005767 0  0.2493687670968211 0.1920800987796668 0  0.2492015433989262 0.191100105216151 0  0.2490148683402368 0.190123630141127 0  0.2488088157209575 0.1891510595947065 0  0.248583467002027 0.1881827780733817 0  0.248338911272912 0.1872191683780146 0  0.2480752452163837 0.1862606114624933 0  0.2477925730703012 0.1853074862831468 0  0.247491006586403 0.1843601696489307 0  0.2471706649861239 0.1834190360724454 0  0.2468316749134561 0.1824844576218615 0  0.2464741703848905 0.181556803773853 0  0.2460982927364335 0.1806364412675232 0  0.2457041905677276 0.1797237339594087 0  0.2452920196833053 0.1788190426796359 0  0.2448619430309942 0.1779227250892727 0  0.2444141306374986 0.1770351355389324 0  0.2439487595411649 0.1761566249286543 0  0.2434660137220228 0.1752875405692407 0  0.2429660840290282 0.1744282260449047 0  0.2424491681046155 0.1735790210774451 0  0.2419154703065648 0.172740261391945 0  0.2413652016272072 0.1719122785840415 0  0.2407985796100187 0.1710953999888432 0  0.2402158282636004 0.1702899485514986 0  0.2396171779731418 0.1694962426995557 0  0.2390028654093291 0.1687145962170574 0  0.2383731334347658 0.1679453181204733 0  0.2377282310079845 0.1671887125365652 0  0.2370684130850081 0.1664450785821334 0  0.2363939405185524 0.1657147102457618 0  0.2357050799549172 0.16499789627161 0  0.2350021037285561 0.1642949200452457 0  0.2342852897544042 0.1636060594816041 0  0.2335549214180355 0.1629315869151449 0  0.2328112874636036 0.1622717689921623 0  0.2320546818796969 0.1616268665653763 0  0.2312854037831102 0.1609971345908053 0  0.2305037573006055 0.1603828220269823 0  0.2297100514486559 0.1597841717365137 0  0.2289046000113105 0.1592014203900902 0  0.2280877214161108 0.1586347983728962 0  0.2272597386082051 0.1580845296935329 0  0.2264209789226942 0.1575508318954712 0  0.2255717739552211 0.1570339159710467 0  0.2247124594308835 0.1565339862780478 0  0.2238433750714713 0.1560512404589033 0  0.2229648644611936 0.1555858693625665 0  0.2220772749108404 0.1551380569690615 0  0.2211809573204692 0.1547079803167439 0  0.2202762660406911 0.1542958094323167 0  0.2193635587325747 0.1539017072636076 0  0.2184431962262392 0.153525829615146 0  0.2175155423782314 0.1531683250865786 0  0.216580963927646 0.1528293350139083 0  0.215639830351152 0.1525089934136243 0  0.2146925137169349 0.1522074269297239 
[...]
<PointData  Scalars="f_19"> 
<DataArray  type="Float64"  Name="f_19"  format="ascii">6.1139572882113724e-01  4.1750895403868066e-01  0.0000000000000000e+00  0.0000000000000000e+00  -1.2463280589985950e+00  -4.7414352634388979e-01  -6.3808896277024707e-01  1.9964763131551506e+00  4.1737887795251488e-01  4.1785315018644537e-01  4.1970659990952436e-01  4.2377462552420747e-01  4.3064514616062993e-01  4.4084827786856362e-01  4.5478295613472197e-01  4.7269370741722910e-01  4.9464315706962125e-01  5.2054292369870570e-01  5.5010126740561649e-01  5.8289848895702046e-01  6.1791750198424289e-01  6.5442242416678076e-01  6.9137409596315791e-01  7.2704196240404795e-01  7.6029922758784141e-01  7.9006482134358680e-01  8.1445465029858821e-01  8.3265470124224683e-01  8.4396983319960484e-01  8.4885182160294204e-01  8.4648764774937957e-01  8.3806746126288667e-01  8.2366463903705978e-01  8.0515816663736806e-01  7.8376631761652993e-01  7.6031816387440387e-01  7.3649319449130968e-01  7.1330841612384377e-01  6.9144051117338212e-01  6.7178499009893533e-01  6.5488885967876542e-01  6.4084017896100964e-01  6.2987534854041571e-01  6.2185399091862870e-01  6.1636883180188107e-01  6.1322549332533727e-01  6.1167459167620419e-01  6.1136622468825208e-01  6.1085072101928195e-01  6.1009882347940891e-01  6.0891279807152809e-01  6.0711661743393142e-01  6.0457141587326590e-01  6.0093408351584210e-01  5.9599439783545405e-01  5.8909786932512598e-01  5.8014574177713141e-01  5.6732837735145547e-01  5.5073458044667922e-01  5.2880399667758660e-01  5.0190274660674672e-01  4.6968004224028087e-01  4.3295354422314486e-01  3.9366748750184771e-01  3.5482516030180433e-01  3.1868190879477371e-01  2.8415098261697797e-01  2.5837731957065346e-01  2.3269192733909499e-01  2.1243987204495954e-01  1.8917524676881314e-01  1.6133642412860674e-01  1.2586567464812190e-01  8.5287313764711284e-02  4.8320297662214073e-02  3.8212204111804829e-02  6.7306695651183260e-02  1.2749048805384192e-01  2.0557955507417477e-01  2.8438111658235310e-01  3.3636788650272481e-01  3.5187218842926826e-01  3.2956441460813246e-01  2.9623604834040002e-01  2.3386072105851610e-01  1.5156922129465178e-01  6.5939462533282506e-02  4.6915367274881159e-02  1.6136498533060256e-01  2.8749949627231353e-01  3.0748596492326302e-01  2.4901872539112896e-01  9.1115159765308484e-02  -6.6833908082386262e-02  2.1003250685413866e-02  1.7496650082566820e-01  1.7713788421111171e-01  1.6215140526415223e-01  -1.7091140550110396e-02  -4.9523127693597332e-02  8.2632976905952296e-02  1.4933826371848866e-01  5.7051142218364978e-02  -7.1146101594226976e-02  0.0000000000000000e+00  0.0000000000000000e+00  0.0000000000000000e+00  0.0000000000000000e+00  6.5508903534461677e-02  2.9415101858483048e-02  -8.7857611714236991e-02  2.9597486961204431e-02  1.5373845163914401e-01  1.4993048248749588e-01  3.2835257732910315e-02  -3.3831389684181631e-02  5.5505080959421894e-02  2.0759581236580324e-01  2.9126741101162085e-01  2.0411645802362413e-01  2.9977010310988327e-02  -2.1403558520056869e-02  9.2540586587531393e-02  2.0735585329858250e-01  2.9019015028436368e-01  3.2398946243564547e-01  3.1145236567547913e-01  2.3694756314647003e-01  1.4587311840622733e-01  9.8452730073857908e-02  1.1314956046094503e-01  1.3989712221023992e-01  1.9390486320654826e-01  2.6973473308908263e-01  3.4481502799925251e-01  3.9128246027574443e-01  3.9938159184491934e-01  3.6343297711924055e-01  3.0924476478989149e-01  2.3546371048570058e-01  1.7162814217891950e-01  1.1258462423468771e-01  7.1283576184593342e-02  4.8539856147404664e-02  3.8521046433252749e-02  4.6562933849333937e-02  6.6417966866109915e-02  9.7286652240127461e-02  1.3370926284358864e-01  1.7693253324511427e-01  2.1908926560434228e-01  2.5976312572166160e-01  2.9536760999553258e-01  3.2614351268334596e-01  3.5101692553620278e-01  3.7077749467050203e-01  3.8520025555918275e-01  3.9617425288031249e-01  4.0398796355088618e-01  4.0929494457799415e-01  4.1285302663497286e-01  4.1507312970411503e-01  4.1632677551273556e-01  4.1700580780130897e-01  -1.2332061697864536e+00  -1.2194415030926020e+00  -1.2049528614358038e+00  -1.1898284870347249e+00  -1.1740864807620179e+00  -1.1581272904244806e+00  -1.1415319615911712e+00  -1.1248607088774862e+00  -1.1080947923281967e+00  -1.0907762824349230e+00  -1.0746917094510280e+00  -1.0576072805090926e+00  -1.0411035772749757e+00  -1.0249991975544237e+00  -1.0091907762147625e+00  -9.9343675965090494e-01  -9.7842913292074885e-01  -9.6360975837930407e-01  -9.4935962152210773e-01  -9.3552821295059652e-01  -9.2231128751774349e-01  -9.0946120529866525e-01  -8.9718460857644922e-01  -8.8540756788697605e-01  -8.7417793844201441e-01  -8.6352245464204158e-01  -8.5339762441564582e-01  -8.4386743749171533e-01  -8.3485591883320076e-01  -8.2641743905175258e-01  -8.1849021783885101e-01  -8.1114988021971945e-01  -8.0433667609541193e-01  -7.9809235769684073e-01  -7.9235114918574823e-01  -7.8712907976568458e-01  -7.8235104350036011e-01  -7.7803412288353979e-01  -7.7412841898587881e-01  -7.7057220767241585e-01  -7.6734799702569301e-01  -7.6438177860779866e-01  -7.6162886802845897e-01  -7.5902626136495044e-01  -7.5650206778668494e-01  -7.5397951799710516e-01  -7.5143722037787419e-01  -7.4879676914979876e-01  -7.4602768432656696e-01  -7.4303516811176640e-01  -7.3978267378681384e-01  -7.3620583756735325e-01  -7.3229740885857408e-01  -7.2796404554216843e-01  -7.2321263155095272e-01  -7.1795610036353252e-01  -7.1222077243162341e-01  -7.0591614769506650e-01  -6.9911097891432639e-01  -6.9171628722086276e-01  -6.8379972837006875e-01  -6.7526640143208860e-01  -6.6623449896120690e-01  -6.5661372437912036e-01  -6.4648262594599393e-01  -6.3584943509029002e-01  -6.2478737531600881e-01  -6.1327346691954032e-01  -6.0143450881006033e-01  -5.8924873216891005e-01  -5.7673315274246062e-01  -5.6412295205921992e-01  -5.5122817690509363e-01  -5.3834717148204725e-01  -5.2532234103432252e-01  -5.1240097815444929e-01  -4.9951799766208638e-01  -4.8676459242382514e-01  -4.6172227765318774e-01  -4.4961200888104713e-01  -4.3782012785487778e-01  -4.2626087282759861e-01  -4.1510974766625913e-01  -4.0431130510243996e-01  -3.9383085149558916e-01  -3.8381405567458077e-01  -3.7412835515163079e-01  -3.6484468610075288e-01  -3.5593096362566440e-01  -3.4742367092595733e-01  -3.3926095839476894e-01  -3.3147888727902181e-01  -3.2404757830766012e-01  -3.1693558876297750e-01  -3.1017973908920365e-01  -3.0371699757429993e-01  -2.9759858874677164e-01  -2.9177290632248387e-01  -2.8627645825719211e-01  -2.8107616419248849e-01  -2.7621123711570400e-01  -2.7166305907740113e-01  -2.6742224605631748e-01  -2.6353397606046880e-01  -2.5998602006893295e-01  -2.5683801603449335e-01  -2.5407357354182347e-01  -2.5171933454439821e-01  -2.4977248907850388e-01  -2.4825848252052121e-01  -2.4727918264139925e-01  -2.4670714148258735e-01  -2.4661907345875322e-01  -2.4700978142240168e-01  -2.4784424196456603e-01  -2.4918700365465041e-01  -2.5099436734263897e-01  -2.5324564991124660e-01  -2.5592721904296062e-01  -2.5898538088269218e-01  -2.6245460049529251e-01  -2.6631309421769883e-01  -2.7053330550425869e-01  -2.7507875658580350e-01  -2.7997923097533395e-01  -2.8519174930015123e-01  -2.9078319414855208e-01  -2.9670140640135989e-01  -3.0292083518964963e-01  -3.0951288641244962e-01  -3.1662538214996427e-01  -3.2404644029603474e-01  -3.3180851135315625e-01  -3.4012335397169602e-01  -3.4895368582774333e-01  -3.5817490557959697e-01  -3.6779026555473476e-01  -3.7806130402709615e-01  -3.8877489672110005e-01  -4.0002725010197226e-01  -4.1190080625047398e-01  -4.2410054640741890e-01  -4.3664183426343778e-01  -4.4981740369111611e-01  -4.6348935263599783e-01  -4.7736005549541144e-01  -4.9171432025758532e-01  -5.0624251175136370e-01  -5.2102911191127765e-01  -5.3588302987710656e-01  -5.5094530395313646e-01  -5.6604159270754106e-01  -5.8104933008273252e-01  -5.9580686747583833e-01  -6.1029039693339504e-01  -6.2437365302141379e-01  -6.5119727203571764e-01  -6.6366422982471740e-01  -6.7523065683957273e-01  -6.8549819537716206e-01  -6.9497448913787763e-01  -7.0367514325259273e-01  -7.1067690609831813e-01  -7.1625123858822959e-01  -7.2028957164636176e-01  -7.2277635707970633e-01  -7.2355587269081734e-01  -7.2239360906219463e-01  -7.1934258547624486e-01  -7.1414074272247774e-01  -7.0687574496770300e-01  -6.9733259112700197e-01  -6.8565621422908851e-01  -6.7149259464627031e-01  -6.5521196826118511e-01  -6.3649568473882745e-01  -6.1542161406138052e-01  -5.9184660437938863e-01  -5.6542151384005412e-01  -5.3693648303429220e-01  -5.0605002746935890e-01  -4.7245243052366065e-01  -4.3727835752267452e-01  -3.9857024215014980e-01  -3.5813669213892413e-01  -3.1550487153191242e-01  -2.7060592651132076e-01  -2.2335802479565789e-01  -1.7437869389026558e-01  -1.2330707355327022e-01  -7.0165351346580140e-02  -1.5552018001363030e-02  4.1006219628250754e-02  9.8691690728202108e-02  1.5797435629852308e-01  2.1884232814418139e-01  2.8072945152679391e-01  3.4336704078847585e-01  4.0716695050904528e-01  4.7177100272967554e-01  5.3670334616079673e-01  6.0224375408058528e-01  6.6794836209477437e-01  7.3366211896517131e-01  7.9952585594182590e-01  8.6516989685965440e-01  9.3043345219230322e-01  9.9502906235685573e-01  1.0590802445702783e+00  1.1220792209887731e+00  1.1842030924043621e+00  1.2452320930930263e+00  1.3048914570504755e+00  1.3625606727216202e+00  1.4191539325345757e+00  1.4735314819620229e+00  1.5257610212262822e+00  1.5762828590405349e+00  1.6245068516390386e+00  1.6701785629925858e+00  1.7132286806507138e+00  1.7538740168151243e+00  1.7918801806971225e+00  1.8265812924570157e+00  1.8586349624341738e+00  1.8875074966142544e+00  1.9132174994481383e+00  1.9356915612637460e+00  1.9549208822816198e+00  1.9703890230174863e+00  1.9826476579300518e+00  1.9914072847161570e+00  1.9971416930842953e+00  1.9985393108464122e+00  1.9911883979640570e+00  1.9822211074869653e+00  1.9697281403763578e+00  1.9537533765766595e+00  1.9341517097264598e+00  1.9112532165600031e+00  1.8843587550541738e+00  1.8544993874107916e+00  1.8214313489148823e+00  1.7850688897704463e+00  1.7456990864702739e+00  1.7030742618056520e+00  1.6577991539705237e+00  1.6097572448331459e+00  1.5586764659791892e+00  1.5052976749887008e+00  1.4491357531204265e+00  1.3907401020384351e+00  1.3301073862942669e+00  1.2670692349788300e+00  1.2031301999516710e+00  1.1369360059181675e+00  1.0687418975320881e+00  9.9952398736757797e-01  9.2882501846723375e-01  8.5723944266137375e-01  7.8448264631858311e-01  7.1090856468936814e-01  6.3709675005125732e-01  5.6243077849146395e-01  4.8753528820043740e-01  4.1275565280599347e-01  3.3784346649396346e-01  2.6305619419576537e-01  1.8866620528011094e-01  1.1502358063526019e-01  4.1840625811583668e-02  -3.0641053460350398e-02  -1.0211672825581335e-01  -1.7210381779183898e-01  -2.4100509943686355e-01  -3.0871809848784371e-01  -3.7459164406273671e-01  -4.3914120629447645e-01  -5.0204591910681728e-01  -5.6270894755497847e-01  -6.2119039836848955e-01  -6.7807109907854790e-01  -7.3250970512593394e-01  -7.8490206625105097e-01  -8.3472365549640859e-01  -8.8219408857696091e-01  -9.2734015578613060e-01  -9.6988712997333071e-01  -1.0098689952952427e+00  -1.0479348263008577e+00  -1.0819981208411154e+00  -1.1143896646258395e+00  -1.1439581772689795e+00  -1.1709927373528777e+00  -1.1952295985547190e+00  -1.2169016208467709e+00  -1.2363952431631808e+00  -1.2528554018790945e+00  -1.2669557373657236e+00  -1.2785158644818102e+00  -1.2878392842169373e+00  -1.2947794452394423e+00  -1.2995173873688934e+00  -1.3022985427958789e+00  -1.3026560736974975e+00  -1.3012917113820990e+00  -1.2980837974249557e+00  -1.2923368148524965e+00  -1.2868635883841495e+00  -1.2780900590277380e+00  -1.2686537658086314e+00  -1.2579781361850502e+00  4.6940760368624951e-01  1.3147791899243175e-01  9.3517424324144793e-01  9.8081096958261649e-01  5.8457295124545983e-01  -1.6858608257252194e-01  2.9092134641841760e-01  3.1389550315731868e-01  9.3015721780410177e-02  -2.7493318912719378e-01  8.3837021095565001e-01  3.6230824900454761e-01  6.8679771868528561e-01  1.0289166988750326e-01  -8.5315844249320438e-01  1.3521359806507907e+00  1.2505889251599547e+00  -3.4579091821496183e-01  -5.5836916328441399e-01  1.2938833866863504e+00  -8.1728650314586060e-01  -7.9544280071079854e-01  1.5014678353998456e-02  -6.8868689780501285e-02  -1.0182010916001019e-01  3.2990845745447850e-01  9.1558859225929301e-01  3.2843511920844104e-01  -6.7758160993289379e-02  1.6532403024441567e+00  -3.0308783723129701e-01  -6.5901996613501834e-01  9.0487490311406826e-01  1.6774705135419368e+00  -7.8327180428204568e-01  1.5033248546347542e+00  -8.0700703131670637e-01  -7.4643856152402299e-01  1.3483780401268495e+00  -2.4133487361438510e-01  -2.3801785437631040e-01  -2.0388030595307577e-01  -3.0943376674867146e-01  -7.5075771471888764e-01  -6.6798193028856323e-01  -3.5289883840832292e-01  3.3713066025570160e-01  -2.4597159363120963e-01  4.9248335316922731e-01  9.9383452167423170e-01  -4.5877621744964125e-01  -2.6833227931203418e-01  1.8590619739630805e+00  1.1563477631224528e+00  8.9973577232194368e-01  -1.0079011497907698e-02  -3.0616492146616459e-01  6.8886191089698623e-01  -4.9674845943781754e-01  -4.3351561432497826e-01  -3.4819119487033556e-01  1.8214665053111958e+00  -8.5802332784445889e-01  -2.9269300433652296e-01  -2.4770112950866335e-01  -7.3517133068694307e-01  -1.0261892344096892e+00  -4.5124314772574631e-01  1.6437096685106030e+00  6.5684860791126087e-01  6.1633836008431719e-01  -6.9996944180360832e-01  -2.4466830388692767e-01  -9.3077438366597087e-01  -8.0361044256353753e-01  -6.1036023452687971e-01  -7.6584765959564005e-01  -7.4054396019304347e-01  -1.1120760041742146e+00  -4.5527320586447706e-02  1.8514195467263148e+00  4.5297133535725614e-01  -2.6622113067975833e-01  -3.4319393531738324e-01  -1.0571261635138716e+00  -5.7720614307551021e-01  1.4661242475363601e+00  -5.0396099991177001e-01  6.8442057789511157e-01  1.3854977557253487e+00  -8.7582435810171178e-01  4.1372313522886728e-01  3.2685355757043205e-01  7.8907196057911333e-01  -1.0597191435382493e-01  1.1832249651465938e+00  9.3461456881523963e-01  -7.2589651415900724e-01  8.7144646869974618e-01  1.1599296854049397e+00  8.3347127577640856e-01  -5.5015119738474405e-01  -3.0232539052383900e-01  -1.1877496318647317e-01  5.3943085511362610e-01  1.7810174794931444e-01  -3.3985214460983504e-01  8.0873513679012254e-01  -2.7440073508248009e-01  -4.1513019650213218e-01  -3.0907853716879156e-02  5.9776851880609660e-01  1.0380760051364428e+00  2.2978328026108200e-01  2.3441977964714694e-01  1.9212303839934108e+00  3.9896135932641458e-01  5.2242015601288279e-02  -1.6605697622371934e-02  -2.5707405386999449e-01  1.6823296540571075e+00  4.4485080140379457e-01  -4.2745154713560202e-01  5.9893976038177443e-01  9.3408243220851217e-01  -5.6462486787318333e-01  -6.5819834827540813e-01  -1.0422311022321105e+00  7.6787388759893854e-02  1.5297641600780425e+00  1.0608669344402846e+00  -6.9905181434335395e-01  -6.5189719337515817e-01  -3.3796612239576312e-01  9.2906475646770159e-01  -1.0903408933829797e-01  -1.1977745591454207e+00  1.3712594974537338e+00  -1.3868106324210824e-01  -1.0214057173335229e+00  4.1519149385069065e-01  -1.1772368693099757e+00  -1.1694025947606985e+00  1.2029711203091005e+00  1.1283316500112870e+00  -9.5654391486500179e-01  6.2195350677136307e-01  -4.2339124017073709e-02  -5.0538513472119762e-01  -9.0007746331457950e-01  6.7848223510709704e-01  1.0387782039614908e+00  1.7635975983091674e+00  1.9381946883613843e+00  1.2376379360143612e+00  2.5101559960564013e-01  3.5542894136757963e-01  -2.2301378988486639e-01  6.3953630223222757e-01  -4.4074908867758766e-01  -2.5008111034404684e-01  -2.5229908419860275e-01  -4.9021684003289395e-01  5.8174536703216073e-01  -8.0187905039448659e-01  -8.4489973752442804e-01  -4.4402475024635646e-01  -7.9461845380487117e-02  1.5784713674580799e+00  6.7507079855798346e-01  6.6336779564398396e-01  -6.5260033861972733e-01  1.4785674586324562e+00  -7.5757795309134190e-01  -6.0070472146360332e-01  5.5296181951961099e-01  1.8820627431294901e+00  7.0335417229259023e-01  1.9805386847171613e-01  1.7098076888352025e+00  -5.3992661323241264e-01  7.5439441761968995e-01  6.1657744356435729e-01  -3.3769393333091241e-01  7.0798568643584092e-01  8.7773579633544307e-01  1.1763299609192590e+00  -5.5772963457084457e-01  -6.6254654853323103e-01  -9.1927959427288897e-01  1.0701641262095747e-01  4.1802389253195388e-01  1.0344513809163673e+00  -3.9565913525406599e-01  1.3521877787217493e+00  5.1697499627491716e-01  1.6559825216607134e+00  -2.9850559306832536e-01  1.1328952057362615e-01  2.6848892785123296e-01  -1.3751708416208078e-02  -6.9925789899399626e-01  -8.2507059056325729e-03  9.9702690291967710e-01  2.5601708108808724e-01  -7.3954863436610996e-01  -1.2434425531116278e+00  -6.6986800191572327e-01  5.2238974239645786e-01  7.1601076856091206e-01  -7.8345574741262702e-01  -1.1300230300406360e+00  -9.1068683588211186e-01  -2.3212585543351216e-01  5.3689086379204598e-01  1.5395659079206805e+00  -6.8548659888154229e-01  7.4066103797723049e-01  -2.4617006237021413e-01  1.4761749287610124e+00  8.3580305473181127e-01  -2.6107617506326597e-01  -2.8082371398246808e-01  9.1179025064750763e-01  -3.3489058683955492e-01  1.7726460834458664e+00  2.8492440539337616e-01  -6.2755884681754481e-01  -4.6186723028563165e-01  3.2032540481766714e-01  5.6057210943061452e-02  -5.4867906739598615e-01  4.6289288779397281e-01  -9.0768458053499354e-02  1.1755708128343176e+00  1.2152747275553191e+00  4.7310418889524780e-02  5.9900118557052451e-01  1.0989115922297910e+00  8.1213989451505250e-02  1.5224979171522217e+00  4.1851382162763824e-04  1.8898936366598584e+00  7.9096982113243741e-01  -7.6153504596835930e-01  1.4492936807398657e-01  -2.7372124514306750e-01  1.7654313185084522e-01  1.5006722937433432e+00  -3.7036511810686734e-01  1.6569921107449459e+00  1.1204165477835246e+00  3.7684697526010558e-01  -7.9065630085850414e-01  -3.2717247027437679e-01  1.2017176998356369e+00  -2.0677294156823761e-01  -7.8024420340663014e-01  -1.4297810868371556e-02  3.4671536622625199e-01  -1.0954153010352985e-02  3.7530101575892022e-01  8.2816721457028986e-01  1.8498940914705944e-01  8.7631811840615115e-01  9.0235682024217567e-01  -7.1668060572370032e-02  1.9640660235384551e+00  -2.6787914328833962e-01  9.0704343551944944e-01  -1.8772017841781130e-01  -9.2487175974249367e-02  -7.0644880233433641e-02  2.7515520850940136e-02  5.6290377287884863e-01  3.8485989732720777e-01  -4.4758576085904417e-01  -8.8550571823399118e-03  6.7024187141907554e-01  1.4305957712917445e+00  -7.2120609615139941e-01  1.8109663517305701e+00  2.5051350125706978e-01  -6.6388640519404662e-01  2.5296395815728512e-01  4.8745881831376919e-01  1.0722583438657209e+00  3.5616222961298216e-01  -7.5272497390838977e-01  9.3613649939321952e-01  4.0241740072308141e-01  2.8389544378606374e-01  8.9697557583479770e-01  5.2912066644207867e-01  -3.4403388045312816e-01  1.0501688424080413e+00  1.0233224183037843e+00  -2.6213548239048740e-01  3.3794145931880443e-01  1.7926642131086850e+00  -6.7462458738502407e-01  -4.7684544910841181e-01  -5.6141323854362046e-01  1.1684112810478815e+00  -2.5949106944296807e-01  1.3715443376084921e+00  7.8561389829571426e-01  -1.7768966152902826e-01  -1.5358680456220120e-01  -6.2748751445789075e-01  -4.8698947791818092e-01  1.5677410587607141e-01  -1.0837706210428342e+00  -1.1803309231328187e+00  5.4233221339500870e-01  -3.4593046312525216e-01  3.7905381643412672e-01  1.0321428646111117e+00  8.5015050573719053e-01  1.3464290838326447e+00  -3.0609955722006732e-01  1.2775955009518623e+00  1.3794704490635799e+00  6.1023640564109849e-01  6.0260802475025266e-01  4.4473188467700764e-01  2.2979969285638119e-01  -2.5393206879321317e-01  -2.3442609040227780e-01  1.9480035866186594e+00  -5.1004351599659414e-01  -7.4367361535594378e-01  6.0757330968029255e-01  1.7536996841864128e-01  -2.7173406303271457e-02  -3.4153119778021268e-01  -2.8549159883640984e-01  -6.