<?xml version="1.0"?>
<VTKFile type="UnstructuredGrid"  version="0.1"  >
<UnstructuredGrid>
<Piece  NumberOfPoints="6146" NumberOfCells="11816">
<Points>
<DataArray  type="Float64"  NumberOfComponents="3"  format="ascii">0 0 0  0 0.41 0  2.2 0 0  2.2 0.41 0  0.2 0.25 0  0.25 0.2 0  0.2 0.15 0  0.15 0.2 0  0 0.4000000000000008 0  0 0.3900000000000259 0  0 0.3800000000000606 0  0 0.3700000000000953 0  0 0.3600000000001082 0  0 0.3500000000001241 0  0 0.3400000000001558 0  0 0.3300000000001905 0  0 0.3200000000002133 0  0 0.3100000000002381 0  0 0.3000000000002728 0  0 0.2900000000003075 0  0 0.2800000000003204 0  0 0.2700000000003551 0  0 0.2600000000003897 0  0 0.2500000000004243 0  0 0.2400000000004419 0  0 0.2300000000004503 0  0 0.2200000000004849 0  0 0.2100000000005195 0  0 0.2000000000005203 0  0 0.1900000000004874 0  0 0.1800000000004544 0  0 0.1700000000004476 0  0 0.1600000000004316 0  0 0.1500000000003986 0  0 0.1400000000003795 0  0 0.1300000000003759 0  0 0.1200000000003428 0  0 0.1100000000003098 0  0 0.1000000000002768 0  0 0.09000000000024383 0  0 0.08000000000021068 0  0 0.07000000000020096 0  0 0.0600000000001879 0  0 0.05000000000015475 0  0 0.04000000000012166 0  0 0.03000000000008857 0  0 0.02000000000005536 0  0 0.01000000000002221 0  0.01007679662828254 0 0  0.02056899213655081 0 0  0.03149370747042262 0 0  0.04286877787651972 0 0  0.05471276293192491 0 0  0.06704499828634325 0 0  0.07988560641938237 0 0  0.09325554633647967 0 0  0.1071766410311884 0 0  0.1216716067611488 0 0  0.1367641016067741 0 0  0.152478764481749 0 0  0.1688412308389146 0 0  0.1858782107385222 0 0  0.2036175120042742 0 0  0.2220880805924512 0 0  0.2413200720246992 0 0  0.2613448680153237 0 0  0.2821951505493904 0 0  0.303904948281349 0 0  0.3265096961752511 0 0  0.350046282509153 0 0  0.3745531279755512 0 0  0.4000702232727447 0 0  0.4266392157867663 0 0  0.4543034693483497 0 0  0.4831081324012234 0 0  0.5131002188568834 0 0  0.54432867931559 0 0  0.5768444722696365 0 0  0.6107006746708104 0 0  0.6459525479050182 0 0  0.682657603414822 0 0  0.7208757746968344 0 0  0.7606694182609572 0 0  0.8021034816821726 0 0  0.8452455957902169 0 0  0.8901661663799046 0 0  0.9369385072466508 0 0  0.9856389585079668 0 0  1.036346998189458 0 0  1.089145397956563 0 0  1.144120312199143 0 0  1.201361473554013 0 0  1.260962300595225 0 0  1.323020078687202 0 0  1.387636074977323 0 0  1.45491573887162 0 0  1.524968897456634 0 0  1.597909863440663 0 0  1.673857723466354 0 0  1.752936382158491 0 0  1.835274909595432 0 0  1.921007725838496 0 0  2.010274709627921 0 0  2.103221572060948 0 0  2.2 0.08199999999981657 0  2.2 0.1639999999995688 0  2.2 0.2459999999995603 0  2.2 0.327999999999785 0  2.103221572061646 0.41 0  2.010274709629372 0.41 0  1.921007725840496 0.41 0  1.835274909597994 0.41 0  1.752936382161568 0.41 0  1.673857723469928 0.41 0  1.597909863444748 0.41 0  1.524968897461176 0.41 0  1.454915738876575 0.41 0  1.387636074982656 0.41 0  1.323020078692824 0.41 0  1.260962300601091 0.41 0  1.201361473560091 0.41 0  1.144120312205409 0.41 0  1.089145397962884 0.41 0  1.036346998195403 0.41 0  0.9856389585135474 0.41 0  0.9369385072518699 0.41 0  0.8901661663847817 0.41 0  0.845245595794772 0.41 0  0.802103481686421 0.41 0  0.760669418264917 0.41 0  0.7208757747005239 0.41 0  0.6826576034182545 0.41 0  0.6459525479082096 0.41 0  0.6107006746737729 0.41 0  0.5768444722723829 0.41 0  0.5443286793181334 0.41 0  0.5131002188592353 0.41 0  0.483108132403395 0.41 0  0.4543034693503529 0.41 0  0.4266392157886099 0.41 0  0.4000702232744378 0.41 0  0.3745531279771039 0.41 0  0.3500462825105728 0.41 0  0.3265096961765468 0.41 0  0.3039049482825278 0.41 0  0.2821951505504596 0.41 0  0.2613448680163102 0.41 0  0.2413200720256172 0.41 0  0.2220880805933043 0.41 0  0.2036175120050649 0.41 0  0.1858782107392414 0.41 0  0.1688412308395617 0.41 0  0.1524787644823298 0.41 0  0.1367641016072927 0.41 0  0.1216716067615997 0.41 0  0.1071766410315749 0.41 0  0.09325554633680744 0.41 0  0.07988560641965403 0.41 0  0.06704499828656418 0.41 0  0.05471276293210092 0.41 0  0.04286877787665544 0.41 0  0.03149370747052016 0.41 0  0.02056899213661323 0.41 0  0.01007679662831285 0.41 0  0.2009941093832422 0.2499901164885035 0  0.2019878257548352 0.2499604698613656 0  0.2029807562584742 0.2499110718390977 0  0.2039725083485626 0.2498419419507366 0  0.2049626899453778 0.2497531075261239 0  0.2059509095900689 0.2496446036851018 0  0.2069367765994233 0.2495164733236293 0  0.2079199012203332 0.2493687670968211 0  0.208899894783849 0.2492015433989262 0  0.209876369858873 0.2490148683402368 0  0.2108489404052936 0.2488088157209575 0  0.2118172219266183 0.248583467002027 0  0.2127808316219855 0.248338911272912 0  0.2137393885375067 0.2480752452163837 0  0.2146925137168532 0.2477925730703012 0  0.2156398303510693 0.247491006586403 0  0.2165809639275547 0.2471706649861239 0  0.2175155423781385 0.2468316749134561 0  0.2184431962261471 0.2464741703848905 0  0.2193635587324768 0.2460982927364335 0  0.2202762660405913 0.2457041905677276 0  0.2211809573203641 0.2452920196833053 0  0.2220772749107273 0.2448619430309942 0  0.2229648644610677 0.2444141306374986 0  0.2238433750713457 0.2439487595411649 0  0.2247124594307593 0.2434660137220228 0  0.2255717739550953 0.2429660840290282 0  0.2264209789225549 0.2424491681046155 0  0.227259738608055 0.2419154703065648 0  0.2280877214159585 0.2413652016272072 0  0.2289046000111568 0.2407985796100187 0  0.2297100514485014 0.2402158282636004 0  0.2305037573004443 0.2396171779731418 0  0.2312854037829426 0.2390028654093291 0  0.2320546818795267 0.2383731334347658 0  0.2328112874634348 0.2377282310079845 0  0.2335549214178666 0.2370684130850081 0  0.2342852897542382 0.2363939405185524 0  0.23500210372839 0.2357050799549172 0  0.2357050799547543 0.2350021037285561 0  0.236393940518396 0.2342852897544042 0  0.2370684130848552 0.2335549214180355 0  0.2377282310078377 0.2328112874636036 0  0.2383731334346237 0.2320546818796969 0  0.2390028654091947 0.2312854037831102 0  0.2396171779730177 0.2305037573006055 0  0.2402158282634863 0.2297100514486559 0  0.2407985796099098 0.2289046000113105 0  0.2413652016271038 0.2280877214161108 0  0.2419154703064672 0.2272597386082051 0  0.2424491681045289 0.2264209789226942 0  0.2429660840289533 0.2255717739552211 0  0.2434660137219522 0.2247124594308835 0  0.2439487595410967 0.2238433750714713 0  0.2444141306374335 0.2229648644611936 0  0.2448619430309386 0.2220772749108404 0  0.2452920196832561 0.2211809573204692 0  0.2457041905676833 0.2202762660406911 0  0.2460982927363924 0.2193635587325747 0  0.246474170384854 0.2184431962262392 0  0.2468316749134214 0.2175155423782314 0  0.2471706649860917 0.216580963927646 0  0.2474910065863757 0.215639830351152 0  0.2477925730702761 0.2146925137169349 0  0.2480752452163603 0.2137393885375889 0  0.2483389112728914 0.2127808316220633 0  0.248583467002012 0.2118172219266803 0  0.2488088157209458 0.2108489404053462 0  0.2490148683402261 0.2098763698589259 0  0.249201543398917 0.2088998947838999 0  0.2493687670968142 0.2079199012203759 0  0.2495164733236233 0.2069367765994661 0  0.2496446036850975 0.205950909590105 0  0.2497531075261207 0.2049626899454101 0  0.2498419419507343 0.2039725083485922 0  0.2499110718390968 0.2029807562584889 0  0.2499604698613655 0.2019878257548365 0  0.2499901164885035 0.2009941093832422 0  0.2499901164885035 0.1990058906167579 0  0.2499604698613656 0.1980121742451648 0  0.2499110718390977 0.1970192437415259 0  0.2498419419507366 0.1960274916514374 0  0.2497531075261239 0.1950373100546222 0  0.2496446036851018 0.1940490904099311 0  0.2495164733236293 0.1930632234005767 0  0.2493687670968211 0.1920800987796668 0  0.2492015433989262 0.191100105216151 0  0.2490148683402368 0.190123630141127 0  0.2488088157209575 0.1891510595947065 0  0.248583467002027 0.1881827780733817 0  0.248338911272912 0.1872191683780146 0  0.2480752452163837 0.1862606114624933 0  0.2477925730703012 0.1853074862831468 0  0.247491006586403 0.1843601696489307 0  0.2471706649861239 0.1834190360724454 0  0.2468316749134561 0.1824844576218615 0  0.2464741703848905 0.181556803773853 0  0.2460982927364335 0.1806364412675232 0  0.2457041905677276 0.1797237339594087 0  0.2452920196833053 0.1788190426796359 0  0.2448619430309942 0.1779227250892727 0  0.2444141306374986 0.1770351355389324 0  0.2439487595411649 0.1761566249286543 0  0.2434660137220228 0.1752875405692407 0  0.2429660840290282 0.1744282260449047 0  0.2424491681046155 0.1735790210774451 0  0.2419154703065648 0.172740261391945 0  0.2413652016272072 0.1719122785840415 0  0.2407985796100187 0.1710953999888432 0  0.2402158282636004 0.1702899485514986 0  0.2396171779731418 0.1694962426995557 0  0.2390028654093291 0.1687145962170574 0  0.2383731334347658 0.1679453181204733 0  0.2377282310079845 0.1671887125365652 0  0.2370684130850081 0.1664450785821334 0  0.2363939405185524 0.1657147102457618 0  0.2357050799549172 0.16499789627161 0  0.2350021037285561 0.1642949200452457 0  0.2342852897544042 0.1636060594816041 0  0.2335549214180355 0.1629315869151449 0  0.2328112874636036 0.1622717689921623 0  0.2320546818796969 0.1616268665653763 0  0.2312854037831102 0.1609971345908053 0  0.2305037573006055 0.1603828220269823 0  0.2297100514486559 0.1597841717365137 0  0.2289046000113105 0.1592014203900902 0  0.2280877214161108 0.1586347983728962 0  0.2272597386082051 0.1580845296935329 0  0.2264209789226942 0.1575508318954712 0  0.2255717739552211 0.1570339159710467 0  0.2247124594308835 0.1565339862780478 0  0.2238433750714713 0.1560512404589033 0  0.2229648644611936 0.1555858693625665 0  0.2220772749108404 0.1551380569690615 0  0.2211809573204692 0.1547079803167439 0  0.2202762660406911 0.1542958094323167 0  0.2193635587325747 0.1539017072636076 0  0.2184431962262392 0.153525829615146 0  0.2175155423782314 0.1531683250865786 0  0.216580963927646 0.1528293350139083 0  0.215639830351152 0.1525089934136243 0  0.2146925137169349 0.1522074269297239 
[...]
<PointData  Scalars="f_19"> 
<DataArray  type="Float64"  Name="f_19"  format="ascii">4.2323555429915727e-01  5.3955516602342846e-01  0.0000000000000000e+00  0.0000000000000000e+00  -7.2086753382204494e-01  -4.6604626038075625e-01  -1.2208680052849594e+00  1.9630112846175485e+00  5.3947339614793877e-01  5.3980550745303524e-01  5.4111329586029389e-01  5.4407062951795282e-01  5.4916652791795262e-01  5.5683728755214923e-01  5.6741356798938347e-01  5.8106608816064620e-01  5.9781558697622095e-01  6.1750191667037624e-01  6.3979454217444831e-01  6.6425041920359662e-01  6.8985163710185271e-01  7.1578447083094376e-01  7.4118802641214221e-01  7.6428617792753717e-01  7.8406992321675506e-01  7.9960610889796579e-01  8.0919278140036954e-01  8.1223478125703008e-01  8.0810608900896752e-01  7.9754336087473621e-01  7.8003840056453555e-01  7.5689776191942670e-01  7.2832722346810674e-01  6.9654196040426386e-01  6.6276127827428588e-01  6.2793998723747679e-01  5.9381067257853259e-01  5.6148191705242434e-01  5.3157190645479757e-01  5.0496110240421366e-01  4.8223522352305154e-01  4.6337875479705382e-01  4.4861093529849000e-01  4.3772824608578514e-01  4.3020403952663488e-01  4.2580099727731363e-01  4.2360948980472624e-01  4.2315414687720732e-01  4.2276975373192766e-01  4.2201792647194580e-01  4.2052500220377198e-01  4.1783598312683706e-01  4.1361941896326160e-01  4.0713606546704112e-01  3.9786355561078829e-01  3.8469022746102866e-01  3.6780275787352862e-01  3.4448881634075357e-01  3.1548931726460439e-01  2.7941274642808012e-01  2.3786088140020520e-01  1.9173611130234122e-01  1.4292886292310872e-01  9.6068989124188361e-02  5.5717199917225672e-02  2.7133306630129507e-02  8.5714210487827600e-03  1.2627539819598703e-02  3.0837131163342611e-02  7.1425569227864805e-02  1.2212226047065629e-01  1.8794496106657316e-01  2.5849297417997613e-01  3.1215318720109608e-01  3.5067385797824618e-01  3.4958513929751234e-01  3.0967589417266095e-01  2.3224162565279385e-01  1.5728899276171462e-01  1.0877521526805602e-01  8.5701914291983691e-02  8.2630565046320617e-02  1.1285640429635095e-01  1.8723425672196684e-01  2.7191736319482951e-01  3.0270619582797686e-01  2.7427178083281190e-01  2.2286295039846091e-01  1.2586173722122601e-01  4.6819518200371633e-03  -1.9844527886735880e-02  1.0442009283559819e-01  2.4028114440715040e-01  2.5129572293916230e-01  1.2999468611981072e-01  -4.0219119993033306e-02  -5.0619564860184714e-02  6.4494834162968820e-02  1.5614252308785048e-01  1.0716863056412526e-01  -4.9599453556300091e-02  -9.0646927444956227e-02  3.5263558072053468e-02  1.1163835949874044e-01  0.0000000000000000e+00  0.0000000000000000e+00  0.0000000000000000e+00  0.0000000000000000e+00  -1.2666210792947327e-01  -3.4693164013152485e-02  9.7318611265680310e-02  8.6441665778801191e-02  -2.8214215990298948e-02  -7.1487515842682189e-02  5.7782656242741683e-02  1.6316306640007022e-01  1.8291419076354351e-01  7.6520484802507352e-02  -8.9881270485754464e-02  -2.8372551218445816e-03  1.6335243657967247e-01  2.6425517318959291e-01  3.0098307552927001e-01  2.3081985431968635e-01  8.5342149315736429e-02  2.3129173553878626e-02  7.0014951596674938e-02  1.5135998997933453e-01  2.2190679525269064e-01  2.8031244336225380e-01  3.1981751096421779e-01  3.3868838433514109e-01  3.1515749185393588e-01  2.5629517370642840e-01  1.7912052758169608e-01  1.0104046449080289e-01  4.5016304469255683e-02  2.2952473681532814e-02  2.7582872934365402e-02  5.6165203504016409e-02  8.7134510531521409e-02  1.1825765437834510e-01  1.4657404537100954e-01  1.7552710332318391e-01  2.0429735245244665e-01  2.3822403004067935e-01  2.7259704387348982e-01  3.1078390920078286e-01  3.4758826168225038e-01  3.8444180377627263e-01  4.1724968684286717e-01  4.4621375775040012e-01  4.6962074507826057e-01  4.8850361729455549e-01  5.0275441967442613e-01  5.1360174407922632e-01  5.2118003190827700e-01  5.2678327251532031e-01  5.3085522935722174e-01  5.3373988190437449e-01  5.3582453457274037e-01  5.3730245332764726e-01  5.3830058507513900e-01  5.3898361601279532e-01  -7.0544346614140174e-01  -6.8975881052056431e-01  -6.7371179633188905e-01  -6.5742104441197913e-01  -6.4087231274396483e-01  -6.2444462644741905e-01  -6.0776176255832992e-01  -5.9129376989576621e-01  -5.7504198425744935e-01  -5.5861210406824069e-01  -5.4346916032298676e-01  -5.2777774286869616e-01  -5.1281223655267338e-01  -4.9842759546472781e-01  -4.8451362942021553e-01  -4.7087260428718958e-01  -4.5804432994902761e-01  -4.4555898193914700e-01  -4.3372016993710993e-01  -4.2237548693361326e-01  -4.1166455077975578e-01  -4.0138561460163352e-01  -3.9165466498735974e-01  -3.8241619085533290e-01  -3.7366433568803697e-01  -3.6541032521750594e-01  -3.5758701899029305e-01  -3.5023492321868666e-01  -3.4327196341371802e-01  -3.3674549933046932e-01  -3.3058915050164656e-01  -3.2487434250565300e-01  -3.1954391495095869e-01  -3.1466806036549216e-01  -3.1019362741601914e-01  -3.0618874468833046e-01  -3.0268026431455058e-01  -2.9961181249699098e-01  -2.9707125403656820e-01  -2.9502806309335738e-01  -2.9350900258558643e-01  -2.9249361957224362e-01  -2.9199362090362802e-01  -2.9199113358329248e-01  -2.9247751750482331e-01  -2.9343453646639828e-01  -2.9481799734985287e-01  -2.9661599429503188e-01  -2.9877735769752378e-01  -3.0129286284011003e-01  -3.0410905023590568e-01  -3.0722479024307919e-01  -3.1057770640750576e-01  -3.1417554143674420e-01  -3.1796635830871467e-01  -3.2196070519354097e-01  -3.2611242312766331e-01  -3.3044226559031215e-01  -3.3491349290541944e-01  -3.3954423366385206e-01  -3.4430598679564656e-01  -3.4922762501197890e-01  -3.5429045554833877e-01  -3.5952073350709013e-01  -3.6492167795977298e-01  -3.7050709245098978e-01  -3.7627813538264387e-01  -3.8225257003232038e-01  -3.8842056753422516e-01  -3.9487125155911379e-01  -4.0156637218373226e-01  -4.0855546068878490e-01  -4.1578844712068697e-01  -4.2340477477371657e-01  -4.3123765956031912e-01  -4.3941729730537538e-01  -4.4798853581703513e-01  -4.5685833185131386e-01  -4.7553630792597229e-01  -4.8535819831029287e-01  -4.9555752490616273e-01  -5.0597183164092352e-01  -5.1662769615845450e-01  -5.2757409960006452e-01  -5.3862495035612890e-01  -5.4988304425385592e-01  -5.6128041480226953e-01  -5.7267317530489203e-01  -5.8411865585543699e-01  -5.9550648881253543e-01  -6.0686377961848947e-01  -6.1803250435459800e-01  -6.2906530623059320e-01  -6.3984463086929544e-01  -6.5037783763575185e-01  -6.6059766276126197e-01  -6.7044594192082640e-01  -6.7996636644689645e-01  -6.8903732948690888e-01  -6.9772744682667798e-01  -7.0594002907146836e-01  -7.1373776202040373e-01  -7.2109207062022707e-01  -7.2800135211747574e-01  -7.3448854638907668e-01  -7.4051942735269793e-01  -7.4618202790449129e-01  -7.5145911332554205e-01  -7.5643663380537773e-01  -7.6111435227074897e-01  -7.6545575714599656e-01  -7.6965747307139820e-01  -7.7368361003200981e-01  -7.7761106362803789e-01  -7.8151250242624404e-01  -7.8536712790146146e-01  -7.8930951328261034e-01  -7.9333251052504172e-01  -7.9754872078814976e-01  -8.0203096003353391e-01  -8.0673700120212810e-01  -8.1171899025021965e-01  -8.1710941106031332e-01  -8.2289078953437711e-01  -8.2911891988390807e-01  -8.3572838273407080e-01  -8.4286476687394418e-01  -8.5049354719449244e-01  -8.5852013315325915e-01  -8.6704382274631886e-01  -8.7629293596731950e-01  -8.8591073065095327e-01  -8.9589404227870506e-01  -9.0652658591536850e-01  -9.1773663775281311e-01  -9.2930221337343066e-01  -9.4120402772197709e-01  -9.5376433157788798e-01  -9.6668936412944495e-01  -9.8006156081233542e-01  -9.9398414158004533e-01  -1.0080582778749669e+00  -1.0222814022825994e+00  -1.0370030459178303e+00  -1.0520534825525094e+00  -1.0670416802392626e+00  -1.0823060674912017e+00  -1.0974803553000727e+00  -1.1126277469131003e+00  -1.1275489868527080e+00  -1.1423712140422504e+00  -1.1569197492633494e+00  -1.1710276907214547e+00  -1.1845415400927661e+00  -1.1974034786357677e+00  -1.2095106622399869e+00  -1.2312629238621349e+00  -1.2406264079906961e+00  -1.2487358319462873e+00  -1.2551421488165047e+00  -1.2604045277688800e+00  -1.2645633713659301e+00  -1.2666756131669246e+00  -1.2670126734727605e+00  -1.2655231343510678e+00  -1.2621647862294769e+00  -1.2568447989699127e+00  -1.2493010670798641e+00  -1.2396497759372951e+00  -1.2275942520199432e+00  -1.2133037416988974e+00  -1.1965207552079953e+00  -1.1774733239000317e+00  -1.1557761547982772e+00  -1.1318494534720418e+00  -1.1053798505438863e+00  -1.0764778747975365e+00  -1.0450052954427893e+00  -1.0106003614118662e+00  -9.7412395555325337e-01  -9.3523387873875563e-01  -8.9358849636823190e-01  -8.5040631032510217e-01  -8.0364084490618182e-01  -7.5519988773752589e-01  -7.0459480823656695e-01  -6.5175457482341115e-01  -5.9657817316448036e-01  -5.3975285274596374e-01  -4.8085216790175189e-01  -4.1993959242398032e-01  -3.5762855175424330e-01  -2.9339555597372408e-01  -2.2813155089157425e-01  -1.6130858585343880e-01  -9.2922036916725473e-02  -2.3593228334348387e-02  4.6416019384791507e-02  1.1757590976479532e-01  1.8949018141485402e-01  2.6166653622993885e-01  3.3442358145598877e-01  4.0727970063828356e-01  4.8012681650476874e-01  5.5312472444433414e-01  6.2586452275825888e-01  6.9819217860192107e-01  7.6983399228173632e-01  8.4092627623306748e-01  9.1093776131147386e-01  9.8008146845115851e-01  1.0481042561987390e+00  1.1147584647552822e+00  1.1794290173130857e+00  1.2430576483623950e+00  1.3044439646742225e+00  1.3637017447332975e+00  1.4212647801145362e+00  1.4765268111683931e+00  1.5292617792737000e+00  1.5793828158524190e+00  1.6271148231853474e+00  1.6722146288412290e+00  1.7140258156885775e+00  1.7532224804582806e+00  1.7892260059276519e+00  1.8221002081510131e+00  1.8517366996819069e+00  1.8781505530048670e+00  1.9008133260746665e+00  1.9202932825979018e+00  1.9362527002577687e+00  1.9492193933674422e+00  1.9578569717565970e+00  1.9649726247792352e+00  1.9632307253552255e+00  1.9579895056919663e+00  1.9492397394766996e+00  1.9368836236228435e+00  1.9212010813772242e+00  1.9015216708183376e+00  1.8788857888866004e+00  1.8530203889289352e+00  1.8238640144545655e+00  1.7916827847084882e+00  1.7562380157024351e+00  1.7181410251579907e+00  1.6772484872991686e+00  1.6333318285312743e+00  1.5870801671096797e+00  1.5380466841036431e+00  1.4867902129645636e+00  1.4332844148773198e+00  1.3773290333933470e+00  1.3205009270361836e+00  1.2614451183086617e+00  1.2003712996834828e+00  1.1382565416715464e+00  1.0746932870733403e+00  1.0102343621483709e+00  9.4462922703580587e-01  8.7824462874402032e-01  8.1162725082094089e-01  7.4415868431909704e-01  6.7652995443372199e-01  6.0901748226193453e-01  5.4141022352964274e-01  4.7398431170660105e-01  4.0700034670719881e-01  3.4078087492870029e-01  2.7508264692333589e-01  2.1016542110914624e-01  1.4629485259449576e-01  8.3936492201602680e-02  2.2732729422370701e-02  -3.7203263884639695e-02  -9.5266830048094345e-02  -1.5192283318842309e-01  -2.0686734509734014e-01  -2.5954937876860923e-01  -3.1001544572992368e-01  -3.5879020988832866e-01  -4.0510700993056464e-01  -4.4931552827803956e-01  -4.9094943963372356e-01  -5.3019811025414199e-01  -5.6711031622752084e-01  -6.0143254991799611e-01  -6.3319775826079538e-01  -6.6304128563359288e-01  -6.8897730196003304e-01  -7.1325581362592883e-01  -7.3479627157396776e-01  -7.5386345672037913e-01  -7.7027330116607473e-01  -7.8422590763510658e-01  -7.9612742254861091e-01  -8.0520163365900255e-01  -8.1207993313173332e-01  -8.1664582534823005e-01  -8.1917585437402674e-01  -8.1960233351956646e-01  -8.1807674756913129e-01  -8.1488949659621834e-01  -8.0961458737157233e-01  -8.0291091208544640e-01  -7.9471768424243461e-01  -7.8439232417135152e-01  -7.7458657312508794e-01  -7.6197688302531108e-01  -7.4902941524224731e-01  -7.3525465101070087e-01  5.9205161095496095e-01  3.4347209926051919e-01  9.6962645147262561e-01  8.6980063900450089e-01  3.6605650309189830e-01  1.0310851035700813e-01  -6.9848965767207627e-01  -2.8494008279331046e-03  -2.5902034639090371e-01  -5.1426536834720049e-01  6.4417597162813345e-01  7.1575583401045598e-02  8.0945021399301220e-01  3.2138199181445326e-01  -2.9693386046448028e-01  1.3100970914424774e+00  1.3056393553440795e+00  -2.8342291402116093e-02  -1.5980695043372278e-01  1.1579609523305123e+00  -1.8657709828790434e-01  -3.9792681736951380e-01  -3.7202710069522121e-01  -5.2875198266453372e-01  -8.7009240060177040e-01  5.2314630143473673e-01  7.0081263193957322e-01  2.9177043099355440e-02  -4.5014135092823648e-01  1.6400728376359801e+00  -1.8732498120927303e-02  -2.9376603011561825e-01  1.0337975359762421e+00  1.5864275941509582e+00  -3.5256752998250152e-01  1.5580945374501445e+00  -3.2911086875525680e-01  -2.6530420630887686e-01  1.1841687563646206e+00  -7.3262240649982924e-01  -7.7815841759985138e-01  -7.8821724165206719e-01  -7.1085340572469469e-01  -2.6945042523503776e-01  -3.7490611670666291e-01  -8.3062248900445634e-01  5.3604705510857731e-01  2.1723530490525653e-02  2.1576223737131384e-01  9.5581143362819920e-01  -5.1590913749624723e-01  -7.2870933026841800e-01  1.8158323566508816e+00  1.2687090566196075e+00  6.7121358251010566e-01  -3.5670049637315199e-01  -7.1578807926667365e-01  5.2092609319522754e-01  -9.7540140428920719e-01  -9.8542140337087880e-01  -9.1181185541654197e-01  1.8286067423346468e+00  -4.7827601352352817e-01  -8.4302580457072440e-01  -7.8146298783858370e-01  -3.9374633991374475e-01  -5.5798017092298269e-01  -2.4933560265147342e-01  1.5150629941106704e+00  8.2407445640132482e-01  6.9730604764997151e-01  -3.2952950857614199e-01  -7.6170598495246455e-01  -4.2521229133246874e-01  -3.2215389486386214e-01  -3.9025649396051038e-01  -2.9705104393582593e-01  -2.8606873739382604e-01  -6.5876606908810598e-01  4.0729489143540237e-01  1.7665325012395612e+00  5.6615456722929824e-01  -7.2624364909304195e-01  -6.2378057824185607e-01  -5.4215081542402110e-01  -1.1165214608788665e+00  1.5437242615828342e+00  -4.6085673295874185e-01  7.7247742093682159e-01  1.2128121381691654e+00  -3.7542075719221479e-01  5.6466176680956082e-01  4.8442237960557150e-01  6.2593196482848623e-01  1.4231044340113685e-01  1.0853229557232364e+00  1.0026431497706210e+00  -3.0504193442960392e-01  7.7997308675167398e-01  1.1743570553125036e+00  8.4500326336651288e-01  -1.1213132302943141e+00  -6.7279427165933203e-01  -3.0246333438975437e-01  2.6745977817943672e-01  -1.3832307293398527e-01  -7.4250917584407683e-01  6.7420895400101033e-01  -8.1548616062211821e-01  -5.3467643276494714e-01  2.2159390861621481e-01  4.0159969083392788e-01  8.9107407438545072e-01  -1.0916128915129496e-01  4.4593617718209688e-01  1.8985132503439817e+00  5.2869541417606203e-01  1.5175401553503690e-01  6.4942601138784140e-02  -7.8988871071481859e-01  1.7296653494236971e+00  1.7522146722595569e-01  -1.0065573762626403e+00  3.5632932682498680e-01  1.0344253063098017e+00  -1.0364225306106865e+00  -3.3746474111813102e-01  -6.4179093814536103e-01  -3.1192205787660099e-01  1.4698839987526979e+00  8.4780773322431524e-01  -3.2940110597116973e-01  -3.6142386864127823e-01  -9.0304273981628624e-01  1.0704756363343202e+00  -4.6650668656229521e-01  -6.9754810778277843e-01  1.3758400501582779e+00  -7.3226311601184702e-01  -4.9820801202030546e-01  5.8097488303344325e-01  -7.3253662922847085e-01  -6.4920708852372999e-01  1.2934834585193089e+00  1.0725364032092168e+00  -4.4065324347045498e-01  4.3899433930677834e-01  -8.3274840801583358e-02  -1.0903494644215841e+00  -2.5139384935861619e-01  8.2227018201859392e-01  8.6434711831833277e-01  1.6471203076509124e+00  1.8802770913380940e+00  1.3467052593753870e+00  4.3292380003752612e-01  5.9861650042186791e-02  5.6537841756843926e-02  3.8855592205253536e-01  -8.9781277924617917e-02  -7.7290180180248735e-01  -7.5440030235682498e-01  -9.7459589322867857e-02  6.9960502234141120e-01  -3.2157219537856430e-01  -3.5253112089607824e-01  -1.5503386895596452e-01  -3.3387850957429488e-01  1.4299106153788563e+00  4.6947508798433119e-01  4.7724245738594828e-01  -1.1893517655051338e+00  1.5059772913979887e+00  -2.9368861184136957e-01  -3.9228094035141337e-01  3.2674380268271153e-01  1.8865564155141115e+00  4.4879021938999436e-01  -1.3516521524069705e-01  1.6585680141463612e+00  -9.8775046798715638e-01  8.1196554874602045e-01  7.9066607976569714e-01  -6.2113257393531507e-01  7.5903915487497786e-01  8.3296610681864425e-01  1.0047175949666094e+00  -7.4719528526697898e-01  -2.6327582713723890e-01  -5.5472891859574058e-01  -2.3279637860288824e-01  5.3897228772050787e-01  1.0279750629793378e+00  -9.7350983221702503e-01  1.2590842867165197e+00  6.2136517787218104e-01  1.6738815150405468e+00  -8.5031520803674510e-01  3.3335990902773921e-01  -2.1939875447861607e-03  2.2917286502540710e-01  -2.0216174102822379e-01  -1.9398532597445325e-02  9.1904752112359234e-01  4.3913449021974693e-01  -2.9857046020846550e-01  -7.6634031765903710e-01  -1.1857216918730387e+00  6.1961908198708926e-01  5.6282771077229077e-01  -3.0767855858082038e-01  -6.0143760545450409e-01  -4.0305301707348201e-01  -6.9757446254529343e-01  2.9393220910771606e-01  1.4121770679221821e+00  -2.9898471369347207e-01  8.3649135016254184e-01  5.9857784950108038e-02  1.3692727900796424e+00  6.2424008573767020e-01  -7.3538427476756674e-01  -7.0248755402772278e-01  7.6776173506395617e-01  -7.3120449862058956e-01  1.7605124280430993e+00  -1.8224858414233221e-02  -1.1969329498167973e+00  -4.8746488149335293e-01  -2.2341287089484591e-02  2.6474962706846644e-01  -4.2340048811090997e-01  1.8869565909739125e-01  1.5591429573635834e-01  1.1531601222280341e+00  1.0178534710817817e+00  2.7066191789568755e-01  7.6266130212943073e-01  9.0300418971779695e-01  1.9274524245588670e-01  1.5975423639468636e+00  2.3882215169221860e-01  1.8034382236525857e+00  6.6695516105870944e-01  -2.8414577058627205e-01  3.5831778079093057e-01  -8.1383659437325917e-01  3.9267778124177344e-01  1.4773295793307375e+00  -5.7685742031320786e-01  1.6957593174974983e+00  1.1661205789660074e+00  7.4391834772710760e-02  -3.3786360995881065e-01  -8.8883888940166422e-01  1.0779182040667834e+00  -7.7653543991645535e-01  -2.9312344707975885e-01  1.8160915120689272e-01  4.9700618680801434e-01  -5.6959544337058146e-02  8.5822735309474721e-02  8.9276929080853040e-01  -4.0962129105521522e-02  7.0809356579380522e-01  7.9671990255630265e-01  -4.6946837296236221e-01  1.9270702417716570e+00  -8.0863616215874112e-01  9.1796792248605175e-01  2.5413667385947178e-02  -4.5790469631797082e-01  1.8914841869726853e-01  -2.9604197511263081e-01  6.6941881112873181e-01  5.3023321771502085e-01  -1.3278939297336970e-01  -3.5060305884213094e-01  8.3164551375384033e-01  1.2594677976538677e+00  -3.1444026940792935e-01  1.8380842252162128e+00  -3.4210000939634694e-02  -3.4476674005430441e-01  -7.4012080609526923e-02  6.5083700132839706e-01  9.8432963960642594e-01  6.1247356235046020e-02  -2.9393675876340575e-01  1.0694310341242070e+00  5.2884393234003979e-01  4.6568100271971080e-01  6.6309976481703159e-01  2.5445781131112105e-01  -6.9651819819824667e-01  9.2885638829094364e-01  1.1254470065352933e+00  -6.9649465772084718e-01  5.4022246029734755e-01  1.7203542755535437e+00  -3.4778422912317880e-01  -1.0640667496945999e+00  -1.1472581829230770e+00  9.7419820832593307e-01  -7.9916702662676808e-01  1.4292924582106765e+00  5.4709329134430507e-01  -8.4045878831566789e-01  -8.8144745082428022e-01  -1.1044883851375789e+00  -9.1662638531181473e-01  -3.2847487506478916e-02  -6.8321468735275559e-01  -7.4824059581229718e-01  6.7864465913579941e-01  -6.0496128791734272e-02  9.1534809979891926e-02  1.1650772871443211e+00  9.4433092382819950e-01  1.1973811269752004e+00  -3.4618531915503674e-02  1.2062020410930245e+00  1.4604479835100190e+00  4.2270157716349532e-01  4.1162814518550733e-01  5.6401574893478779e-01  2.1530617070756347e-01  -7.8669283746026442e-01  -7.6477492874694064e-01  1.9320393598739531e+00  -1.5115725528429369e-01  -2.5228681729063129e-01  6.8431481408714290e-01  -1.5683045157528255e-01  4.1771051371953293e-03  -3.3669242042222908e-02  -8.3340585480704377