<?xml version="1.0"?>
<VTKFile type="UnstructuredGrid"  version="0.1"  >
<UnstructuredGrid>
<Piece  NumberOfPoints="6146" NumberOfCells="11816">
<Points>
<DataArray  type="Float64"  NumberOfComponents="3"  format="ascii">0 0 0  0 0.41 0  2.2 0 0  2.2 0.41 0  0.2 0.25 0  0.25 0.2 0  0.2 0.15 0  0.15 0.2 0  0 0.4000000000000008 0  0 0.3900000000000259 0  0 0.3800000000000606 0  0 0.3700000000000953 0  0 0.3600000000001082 0  0 0.3500000000001241 0  0 0.3400000000001558 0  0 0.3300000000001905 0  0 0.3200000000002133 0  0 0.3100000000002381 0  0 0.3000000000002728 0  0 0.2900000000003075 0  0 0.2800000000003204 0  0 0.2700000000003551 0  0 0.2600000000003897 0  0 0.2500000000004243 0  0 0.2400000000004419 0  0 0.2300000000004503 0  0 0.2200000000004849 0  0 0.2100000000005195 0  0 0.2000000000005203 0  0 0.1900000000004874 0  0 0.1800000000004544 0  0 0.1700000000004476 0  0 0.1600000000004316 0  0 0.1500000000003986 0  0 0.1400000000003795 0  0 0.1300000000003759 0  0 0.1200000000003428 0  0 0.1100000000003098 0  0 0.1000000000002768 0  0 0.09000000000024383 0  0 0.08000000000021068 0  0 0.07000000000020096 0  0 0.0600000000001879 0  0 0.05000000000015475 0  0 0.04000000000012166 0  0 0.03000000000008857 0  0 0.02000000000005536 0  0 0.01000000000002221 0  0.01007679662828254 0 0  0.02056899213655081 0 0  0.03149370747042262 0 0  0.04286877787651972 0 0  0.05471276293192491 0 0  0.06704499828634325 0 0  0.07988560641938237 0 0  0.09325554633647967 0 0  0.1071766410311884 0 0  0.1216716067611488 0 0  0.1367641016067741 0 0  0.152478764481749 0 0  0.1688412308389146 0 0  0.1858782107385222 0 0  0.2036175120042742 0 0  0.2220880805924512 0 0  0.2413200720246992 0 0  0.2613448680153237 0 0  0.2821951505493904 0 0  0.303904948281349 0 0  0.3265096961752511 0 0  0.350046282509153 0 0  0.3745531279755512 0 0  0.4000702232727447 0 0  0.4266392157867663 0 0  0.4543034693483497 0 0  0.4831081324012234 0 0  0.5131002188568834 0 0  0.54432867931559 0 0  0.5768444722696365 0 0  0.6107006746708104 0 0  0.6459525479050182 0 0  0.682657603414822 0 0  0.7208757746968344 0 0  0.7606694182609572 0 0  0.8021034816821726 0 0  0.8452455957902169 0 0  0.8901661663799046 0 0  0.9369385072466508 0 0  0.9856389585079668 0 0  1.036346998189458 0 0  1.089145397956563 0 0  1.144120312199143 0 0  1.201361473554013 0 0  1.260962300595225 0 0  1.323020078687202 0 0  1.387636074977323 0 0  1.45491573887162 0 0  1.524968897456634 0 0  1.597909863440663 0 0  1.673857723466354 0 0  1.752936382158491 0 0  1.835274909595432 0 0  1.921007725838496 0 0  2.010274709627921 0 0  2.103221572060948 0 0  2.2 0.08199999999981657 0  2.2 0.1639999999995688 0  2.2 0.2459999999995603 0  2.2 0.327999999999785 0  2.103221572061646 0.41 0  2.010274709629372 0.41 0  1.921007725840496 0.41 0  1.835274909597994 0.41 0  1.752936382161568 0.41 0  1.673857723469928 0.41 0  1.597909863444748 0.41 0  1.524968897461176 0.41 0  1.454915738876575 0.41 0  1.387636074982656 0.41 0  1.323020078692824 0.41 0  1.260962300601091 0.41 0  1.201361473560091 0.41 0  1.144120312205409 0.41 0  1.089145397962884 0.41 0  1.036346998195403 0.41 0  0.9856389585135474 0.41 0  0.9369385072518699 0.41 0  0.8901661663847817 0.41 0  0.845245595794772 0.41 0  0.802103481686421 0.41 0  0.760669418264917 0.41 0  0.7208757747005239 0.41 0  0.6826576034182545 0.41 0  0.6459525479082096 0.41 0  0.6107006746737729 0.41 0  0.5768444722723829 0.41 0  0.5443286793181334 0.41 0  0.5131002188592353 0.41 0  0.483108132403395 0.41 0  0.4543034693503529 0.41 0  0.4266392157886099 0.41 0  0.4000702232744378 0.41 0  0.3745531279771039 0.41 0  0.3500462825105728 0.41 0  0.3265096961765468 0.41 0  0.3039049482825278 0.41 0  0.2821951505504596 0.41 0  0.2613448680163102 0.41 0  0.2413200720256172 0.41 0  0.2220880805933043 0.41 0  0.2036175120050649 0.41 0  0.1858782107392414 0.41 0  0.1688412308395617 0.41 0  0.1524787644823298 0.41 0  0.1367641016072927 0.41 0  0.1216716067615997 0.41 0  0.1071766410315749 0.41 0  0.09325554633680744 0.41 0  0.07988560641965403 0.41 0  0.06704499828656418 0.41 0  0.05471276293210092 0.41 0  0.04286877787665544 0.41 0  0.03149370747052016 0.41 0  0.02056899213661323 0.41 0  0.01007679662831285 0.41 0  0.2009941093832422 0.2499901164885035 0  0.2019878257548352 0.2499604698613656 0  0.2029807562584742 0.2499110718390977 0  0.2039725083485626 0.2498419419507366 0  0.2049626899453778 0.2497531075261239 0  0.2059509095900689 0.2496446036851018 0  0.2069367765994233 0.2495164733236293 0  0.2079199012203332 0.2493687670968211 0  0.208899894783849 0.2492015433989262 0  0.209876369858873 0.2490148683402368 0  0.2108489404052936 0.2488088157209575 0  0.2118172219266183 0.248583467002027 0  0.2127808316219855 0.248338911272912 0  0.2137393885375067 0.2480752452163837 0  0.2146925137168532 0.2477925730703012 0  0.2156398303510693 0.247491006586403 0  0.2165809639275547 0.2471706649861239 0  0.2175155423781385 0.2468316749134561 0  0.2184431962261471 0.2464741703848905 0  0.2193635587324768 0.2460982927364335 0  0.2202762660405913 0.2457041905677276 0  0.2211809573203641 0.2452920196833053 0  0.2220772749107273 0.2448619430309942 0  0.2229648644610677 0.2444141306374986 0  0.2238433750713457 0.2439487595411649 0  0.2247124594307593 0.2434660137220228 0  0.2255717739550953 0.2429660840290282 0  0.2264209789225549 0.2424491681046155 0  0.227259738608055 0.2419154703065648 0  0.2280877214159585 0.2413652016272072 0  0.2289046000111568 0.2407985796100187 0  0.2297100514485014 0.2402158282636004 0  0.2305037573004443 0.2396171779731418 0  0.2312854037829426 0.2390028654093291 0  0.2320546818795267 0.2383731334347658 0  0.2328112874634348 0.2377282310079845 0  0.2335549214178666 0.2370684130850081 0  0.2342852897542382 0.2363939405185524 0  0.23500210372839 0.2357050799549172 0  0.2357050799547543 0.2350021037285561 0  0.236393940518396 0.2342852897544042 0  0.2370684130848552 0.2335549214180355 0  0.2377282310078377 0.2328112874636036 0  0.2383731334346237 0.2320546818796969 0  0.2390028654091947 0.2312854037831102 0  0.2396171779730177 0.2305037573006055 0  0.2402158282634863 0.2297100514486559 0  0.2407985796099098 0.2289046000113105 0  0.2413652016271038 0.2280877214161108 0  0.2419154703064672 0.2272597386082051 0  0.2424491681045289 0.2264209789226942 0  0.2429660840289533 0.2255717739552211 0  0.2434660137219522 0.2247124594308835 0  0.2439487595410967 0.2238433750714713 0  0.2444141306374335 0.2229648644611936 0  0.2448619430309386 0.2220772749108404 0  0.2452920196832561 0.2211809573204692 0  0.2457041905676833 0.2202762660406911 0  0.2460982927363924 0.2193635587325747 0  0.246474170384854 0.2184431962262392 0  0.2468316749134214 0.2175155423782314 0  0.2471706649860917 0.216580963927646 0  0.2474910065863757 0.215639830351152 0  0.2477925730702761 0.2146925137169349 0  0.2480752452163603 0.2137393885375889 0  0.2483389112728914 0.2127808316220633 0  0.248583467002012 0.2118172219266803 0  0.2488088157209458 0.2108489404053462 0  0.2490148683402261 0.2098763698589259 0  0.249201543398917 0.2088998947838999 0  0.2493687670968142 0.2079199012203759 0  0.2495164733236233 0.2069367765994661 0  0.2496446036850975 0.205950909590105 0  0.2497531075261207 0.2049626899454101 0  0.2498419419507343 0.2039725083485922 0  0.2499110718390968 0.2029807562584889 0  0.2499604698613655 0.2019878257548365 0  0.2499901164885035 0.2009941093832422 0  0.2499901164885035 0.1990058906167579 0  0.2499604698613656 0.1980121742451648 0  0.2499110718390977 0.1970192437415259 0  0.2498419419507366 0.1960274916514374 0  0.2497531075261239 0.1950373100546222 0  0.2496446036851018 0.1940490904099311 0  0.2495164733236293 0.1930632234005767 0  0.2493687670968211 0.1920800987796668 0  0.2492015433989262 0.191100105216151 0  0.2490148683402368 0.190123630141127 0  0.2488088157209575 0.1891510595947065 0  0.248583467002027 0.1881827780733817 0  0.248338911272912 0.1872191683780146 0  0.2480752452163837 0.1862606114624933 0  0.2477925730703012 0.1853074862831468 0  0.247491006586403 0.1843601696489307 0  0.2471706649861239 0.1834190360724454 0  0.2468316749134561 0.1824844576218615 0  0.2464741703848905 0.181556803773853 0  0.2460982927364335 0.1806364412675232 0  0.2457041905677276 0.1797237339594087 0  0.2452920196833053 0.1788190426796359 0  0.2448619430309942 0.1779227250892727 0  0.2444141306374986 0.1770351355389324 0  0.2439487595411649 0.1761566249286543 0  0.2434660137220228 0.1752875405692407 0  0.2429660840290282 0.1744282260449047 0  0.2424491681046155 0.1735790210774451 0  0.2419154703065648 0.172740261391945 0  0.2413652016272072 0.1719122785840415 0  0.2407985796100187 0.1710953999888432 0  0.2402158282636004 0.1702899485514986 0  0.2396171779731418 0.1694962426995557 0  0.2390028654093291 0.1687145962170574 0  0.2383731334347658 0.1679453181204733 0  0.2377282310079845 0.1671887125365652 0  0.2370684130850081 0.1664450785821334 0  0.2363939405185524 0.1657147102457618 0  0.2357050799549172 0.16499789627161 0  0.2350021037285561 0.1642949200452457 0  0.2342852897544042 0.1636060594816041 0  0.2335549214180355 0.1629315869151449 0  0.2328112874636036 0.1622717689921623 0  0.2320546818796969 0.1616268665653763 0  0.2312854037831102 0.1609971345908053 0  0.2305037573006055 0.1603828220269823 0  0.2297100514486559 0.1597841717365137 0  0.2289046000113105 0.1592014203900902 0  0.2280877214161108 0.1586347983728962 0  0.2272597386082051 0.1580845296935329 0  0.2264209789226942 0.1575508318954712 0  0.2255717739552211 0.1570339159710467 0  0.2247124594308835 0.1565339862780478 0  0.2238433750714713 0.1560512404589033 0  0.2229648644611936 0.1555858693625665 0  0.2220772749108404 0.1551380569690615 0  0.2211809573204692 0.1547079803167439 0  0.2202762660406911 0.1542958094323167 0  0.2193635587325747 0.1539017072636076 0  0.2184431962262392 0.153525829615146 0  0.2175155423782314 0.1531683250865786 0  0.216580963927646 0.1528293350139083 0  0.215639830351152 0.1525089934136243 0  0.2146925137169349 0.1522074269297239 
[...]
<PointData  Scalars="f_19"> 
<DataArray  type="Float64"  Name="f_19"  format="ascii">4.2535783966754226e-01  5.7137673294524416e-01  0.0000000000000000e+00  0.0000000000000000e+00  -6.6000738913512746e-01  -4.8574722096472717e-01  -1.2515645212645772e+00  1.9779634236088943e+00  5.7129961450032662e-01  5.7166995316482472e-01  5.7303250769700320e-01  5.7603497244218571e-01  5.8114906878694694e-01  5.8878655645735023e-01  5.9925942963952150e-01  6.1271711434851817e-01  6.2916509402007270e-01  6.4842136133885586e-01  6.7014155687896437e-01  6.9387197011966339e-01  7.1858198688801078e-01  7.4344104610619910e-01  7.6761346851911672e-01  7.8930717072712875e-01  8.0753081764437595e-01  8.2137803533855558e-01  8.2917345835300060e-01  8.3036231713654940e-01  8.2433970993738015e-01  8.1189065595946319e-01  7.9256085605752569e-01  7.6768026697136693e-01  7.3748508755454567e-01  7.0423446668860157e-01  6.6914898802170675e-01  6.3320306123397463e-01  5.9812406110168503e-01  5.6502751191335854e-01  5.3451794468507963e-01  5.0745463529587731e-01  4.8441983543630524e-01  4.6537395026737965e-01  4.5051502522079223e-01  4.3961854092090163e-01  4.3213301788800140e-01  4.2779797153976878e-01  4.2567863312157195e-01  4.2527061624692286e-01  4.2489750412508587e-01  4.2421201208810588e-01  4.2287103424995359e-01  4.2043330656494049e-01  4.1657464479333217e-01  4.1052434530445930e-01  4.0177532795688908e-01  3.8914058540506824e-01  3.7274490732992616e-01  3.4977234998046602e-01  3.2090137543540131e-01  2.8463944352800946e-01  2.4255551994831304e-01  1.9543343607339825e-01  1.4509328977797517e-01  9.6198830071843114e-02  5.3240333356807716e-02  2.0953511045934931e-02  -2.3160334755496976e-03  -4.3068386687364658e-03  6.4298677996624315e-03  3.9030574924966609e-02  8.3463831473959596e-02  1.4925477669377971e-01  2.2668886967157281e-01  2.9824054195846345e-01  3.6195921693205740e-01  3.9136214698754723e-01  3.8139323570757783e-01  3.2478441642345329e-01  2.4182712905039336e-01  1.7015108236415044e-01  1.2518639587910366e-01  9.9413625114143284e-02  9.1324984740950521e-02  1.3777915364419588e-01  2.3821298885039457e-01  3.0175482325501013e-01  3.0231549432907795e-01  2.6522450044083634e-01  1.8514381097962446e-01  6.4486698984312821e-02  -2.7771879756006552e-02  4.5492253497040738e-02  2.0819283219476764e-01  2.7108529057812764e-01  1.8671487597784692e-01  2.0460648235387451e-02  -5.4460872784436946e-02  2.0585987168946971e-02  1.4201780453838247e-01  1.4116784074077637e-01  3.4737216037057832e-03  -9.4196787812812904e-02  4.5921874661216640e-03  9.8127488790207898e-02  0.0000000000000000e+00  0.0000000000000000e+00  0.0000000000000000e+00  0.0000000000000000e+00  -9.2132491885803816e-02  2.1297330502736168e-02  1.2562219471197389e-01  6.9242572453334955e-02  -5.0715779090200835e-02  -3.5450727550451110e-02  1.1503954763665168e-01  1.8651843404263965e-01  1.4989570531511839e-01  2.8495770659301711e-02  -8.4300714779257671e-02  6.6603484411241864e-02  2.3088757491666029e-01  3.0015031825530358e-01  2.8767674645290697e-01  1.6535600009608781e-01  3.5873945212870767e-02  4.5943561301857123e-02  1.2520156645417019e-01  2.0098541889317134e-01  2.6647158822785622e-01  3.1585095017757614e-01  3.3491054596753256e-01  3.3095668991242616e-01  2.8285441670377082e-01  2.0659573998953842e-01  1.3074030322155281e-01  6.9018057296262120e-02  3.7559150229295832e-02  4.1691450297201393e-02  6.6978300452711290e-02  1.0620765694521117e-01  1.4021536924022462e-01  1.7090777730011442e-01  1.9724849476823125e-01  2.2346835677471297e-01  2.4924361178930171e-01  2.8006441853090636e-01  3.1163936687209770e-01  3.4703437203481968e-01  3.8164316972356954e-01  4.1660109809954365e-01  4.4800096698068903e-01  4.7600835292551824e-01  4.9889728122344268e-01  5.1759976097484017e-01  5.3197038773478411e-01  5.4310208859505205e-01  5.5109483379964908e-01  5.5715319009986797e-01  5.6164747880819521e-01  5.6489732594761044e-01  5.6727171877294513e-01  5.6894432740967027e-01  5.7006363495243284e-01  5.7080167599223719e-01  -6.4564449562224013e-01  -6.3102222451636991e-01  -6.1604445832379262e-01  -6.0082270180919761e-01  -5.8534619807425292e-01  -5.6998392083740212e-01  -5.5436657435103687e-01  -5.3895716021913109e-01  -5.2375322388712320e-01  -5.0836866948219683e-01  -4.9423704817138209e-01  -4.7956313066584616e-01  -4.6559277896151757e-01  -4.5218035469232404e-01  -4.3922075829434332e-01  -4.2652112199233411e-01  -4.1460328529019141e-01  -4.0301440774623959e-01  -3.9204502032905864e-01  -3.8154959038808012e-01  -3.7166056836051092e-01  -3.6218213993534976e-01  -3.5322718312507645e-01  -3.4473715814262990e-01  -3.3670738044965820e-01  -3.2914333780907234e-01  -3.2197953187733108e-01  -3.1524873942632697e-01  -3.0887003218319631e-01  -3.0288252879226957e-01  -2.9721989388001629e-01  -2.9194455204753078e-01  -2.8699867404319324e-01  -2.8244606498217945e-01  -2.7823298926937595e-01  -2.7442540616992767e-01  -2.7105209505170075e-01  -2.6805500581573727e-01  -2.6553012863597408e-01  -2.6345138148520136e-01  -2.6185356791582620e-01  -2.6072286550773865e-01  -2.6008703008658107e-01  -2.5993480090704441e-01  -2.6028077900793789e-01  -2.6111475325302408e-01  -2.6240545412147037e-01  -2.6414993474832982e-01  -2.6631082327895850e-01  -2.6889243040154565e-01  -2.7185630579240339e-01  -2.7520214386028968e-01  -2.7887741155068080e-01  -2.8290001819353222e-01  -2.8722375198891253e-01  -2.9186896472172147e-01  -2.9679262012388136e-01  -3.0202445093826863e-01  -3.0751856601786987e-01  -3.1330890193885508e-01  -3.1936894674996369e-01  -3.2573775974171110e-01  -3.3238006212436821e-01  -3.3937365809295744e-01  -3.4668550385695085e-01  -3.5432877075870012e-01  -3.6229410353588071e-01  -3.7060261297658098e-01  -3.7921046969459360e-01  -3.8827617929677050e-01  -3.9769900199799973e-01  -4.0750396821351670e-01  -4.1763696975839182e-01  -4.2823281908598121e-01  -4.3905948636537606e-01  -4.5023919700846049e-01  -4.6182828576261603e-01  -4.7365932238052039e-01  -4.9804145402471511e-01  -5.1052125345847843e-01  -5.2322268370619163e-01  -5.3597556203630137e-01  -5.4873145487861175e-01  -5.6155092859279354e-01  -5.7424146471658033e-01  -5.8683094843600037e-01  -5.9930044388087911e-01  -6.1146629146240405e-01  -6.2339115814531421e-01  -6.3494668433601764e-01  -6.4618495497928619e-01  -6.5694547055567443e-01  -6.6728546155168333e-01  -6.7714046081836521e-01  -6.8648319727027685e-01  -6.9532606561722432e-01  -7.0359281595018974e-01  -7.1136508998063297e-01  -7.1855730584044497e-01  -7.2525079649899804e-01  -7.3138896535994469e-01  -7.3704369600836916e-01  -7.4225881602825916e-01  -7.4701600330615447e-01  -7.5139316584622240e-01  -7.5536402409219305e-01  -7.5901748003601244e-01  -7.6239330064073285e-01  -7.6557333706657960e-01  -7.6858983737172604e-01  -7.7140016148875046e-01  -7.7421871995467850e-01  -7.7702974520598533e-01  -7.7990010400996246e-01  -7.8291421054425070e-01  -7.8605608077535816e-01  -7.8945106113681929e-01  -7.9309919149740082e-01  -7.9709304826089933e-01  -8.0149916291675083e-01  -8.0627575171471466e-01  -8.1146297017331948e-01  -8.1716955266375435e-01  -8.2336469211715357e-01  -8.3009497597877746e-01  -8.3728280615953132e-01  -8.4506090523779243e-01  -8.5337594044917298e-01  -8.6212885884578894e-01  -8.7141286564340970e-01  -8.8145033706561826e-01  -8.9187365310980593e-01  -9.0268078534529317e-01  -9.1415936574887879e-01  -9.2623201419286338e-01  -9.3867435725048598e-01  -9.5146691670242578e-01  -9.6494153980378550e-01  -9.7879495439388764e-01  -9.9311592422755357e-01  -1.0080070876499370e+00  -1.0230616570085367e+00  -1.0382788459709791e+00  -1.0540149905904577e+00  -1.0700935617532563e+00  -1.0861187599817845e+00  -1.1024329651862399e+00  -1.1186613921003268e+00  -1.1348715772586035e+00  -1.1508561912212316e+00  -1.1667476138416168e+00  -1.1823634578701576e+00  -1.1975372649589977e+00  -1.2121088018994972e+00  -1.2260235980411929e+00  -1.2391725846434010e+00  -1.2629785072001252e+00  -1.2733492249481857e+00  -1.2824458357319117e+00  -1.2898172286656890e+00  -1.2960290894749040e+00  -1.3011205867433890e+00  -1.3041356553860670e+00  -1.3053524798179432e+00  -1.3047143621190063e+00  -1.3021835379327003e+00  -1.2976603805197435e+00  -1.2908833472499452e+00  -1.2819655201747309e+00  -1.2706119846533568e+00  -1.2569873886658112e+00  -1.2408361100955025e+00  -1.2223830767197721e+00  -1.2012408858981405e+00  -1.1778345549682303e+00  -1.1518461805207270e+00  -1.1233858929369880e+00  -1.0923091733868640e+00  -1.0582503969929413e+00  -1.0220855427024993e+00  -9.8345924224429004e-01  -9.4202602641115107e-01  -8.9903125301385989e-01  -8.5236897900781017e-01  -8.0400222877234206e-01  -7.5342240664330862e-01  -7.0054801075155060e-01  -6.4528489303869874e-01  -5.8832262259370705e-01  -5.2923436397956369e-01  -4.6806893497368873e-01  -4.0545314368305357e-01  -3.4085814296535211e-01  -2.7518727643815666e-01  -2.0788992311091534e-01  -1.3895805635950817e-01  -6.9039061827488063e-02  1.6172097366402938e-03  7.3501883063646717e-02  1.4618960376642862e-01  2.1919496446966491e-01  2.9284291878128099e-01  3.6663424044924414e-01  4.4048869842662364e-01  5.1456583044423054e-01  5.8843531812152028e-01  6.6194513930491095e-01  7.3483013533341524e-01  8.0722294394998539e-01  8.7858624506429595e-01  9.4914144164209135e-01  1.0186166834357560e+00  1.0867763273115716e+00  1.1530157700702717e+00  1.2182678889490839e+00  1.2813159698371765e+00  1.3422903916082820e+00  1.4016101076471745e+00  1.4586659743614230e+00  1.5132431322777606e+00  1.5652442223339020e+00  1.6148915980922038e+00  1.6619367926121018e+00  1.7057304152917454e+00  1.7469445045144150e+00  1.7849831605304420e+00  1.8199258612862397e+00  1.8516474898888109e+00  1.8801698739674531e+00  1.9049601987578393e+00  1.9265880921672649e+00  1.9446956506835391e+00  1.9598287147465261e+00  1.9706409973256118e+00  1.9821048048432437e+00  1.9825316144589391e+00  1.9794649308974595e+00  1.9728727651196298e+00  1.9626732091733794e+00  1.9491246756201563e+00  1.9315646751052009e+00  1.9110370779198789e+00  1.8872540434368048e+00  1.8601612584628573e+00  1.8300148834343097e+00  1.7965756468703904e+00  1.7604584504863809e+00  1.7215052567566920e+00  1.6795000195580705e+00  1.6351129401864317e+00  1.5879051781236095e+00  1.5384411851579343e+00  1.4866801340104416e+00  1.4324019721978314e+00  1.3772318190509885e+00  1.3197899813690419e+00  1.2602619796994525e+00  1.1996379327430935e+00  1.1375211185151646e+00  1.0744477864448869e+00  1.0101741668942403e+00  9.4507388384742130e-01  8.7968625499020536e-01  8.1336097635761762e-01  7.4684455663599048e-01  6.8037306143482312e-01  6.1374276595872257e-01  5.4724096010362455e-01  4.8112388813213242e-01  4.1569772560826745e-01  3.5073298929465174e-01  2.8650240648206426e-01  2.2325255117693960e-01  1.6144554526423369e-01  1.0073380191357029e-01  4.1236858569740575e-02  -1.6453996554852152e-02  -7.2791680840371326e-02  -1.2746558313794371e-01  -1.7994774069129740e-01  -2.3028028786977586e-01  -2.7896428336508522e-01  -3.2524750182553286e-01  -3.6947741216587732e-01  -4.1118669019977916e-01  -4.5056585290593576e-01  -4.8765622428764788e-01  -5.2220962119550662e-01  -5.5425547840147316e-01  -5.8441132269190776e-01  -6.1073779932122452e-01  -6.3543239991211808e-01  -6.5743515217303694e-01  -6.7700859671733871e-01  -6.9396772204848345e-01  -7.0851245452133860e-01  -7.2103763862275805e-01  -7.3078039036302056e-01  -7.3836492476761273e-01  -7.4367160317679659e-01  -7.4697714437270946e-01  -7.4820966166274727e-01  -7.4752342373675884e-01  -7.4520053704070466e-01  -7.4082238587101146e-01  -7.3504115195509001e-01  -7.2779297709172552e-01  -7.1844501034604480e-01  -7.0960977750775556e-01  -6.9801576630745787e-01  -6.8609088070721536e-01  -6.7334949941431377e-01  6.2390250804224012e-01  3.7591246967880937e-01  9.9490500993313746e-01  8.7638912478668662e-01  3.6784101241509071e-01  1.4761964702218699e-01  -6.3711258727203024e-01  -2.0202237287456496e-03  -2.8437691968145845e-01  -7.0605256178090825e-01  6.4038503634900246e-01  6.4275650325428105e-02  8.4581062307801180e-01  3.6236422422772208e-01  -1.3246355305571469e-01  1.3249339614225151e+00  1.3368398626657352e+00  1.3166601788837197e-02  -1.1895452063001559e-01  1.1566433969258854e+00  -1.4455819161525221e-01  -3.7387561166830191e-01  -3.8146459722332826e-01  -5.3357760131562360e-01  -9.0034192573702854e-01  5.7247576854276538e-01  6.8521154119755123e-01  7.7215691764370041e-03  -4.7084725806037780e-01  1.6600823181466302e+00  3.7546104461245323e-02  -2.4010189286818012e-01  1.0801518820531593e+00  1.5893962453751957e+00  -3.0479461536845948e-01  1.5935930626889767e+00  -2.8997129413804484e-01  -2.3858756925054117e-01  1.1715921211704321e+00  -7.4372371391378322e-01  -7.7831016669124586e-01  -7.7694498662964884e-01  -7.7381197288612003e-01  -2.4471274083603239e-01  -3.6858987726681963e-01  -8.5353394072154043e-01  5.9612885246568359e-01  8.8432088945370246e-02  1.8483750194309473e-01  9.7165409958765270e-01  -5.4623222014927730e-01  -7.4639413973651791e-01  1.8287875589869484e+00  1.3189066652327692e+00  6.4373941254084177e-01  -3.9396119268754315e-01  -7.5149769835594871e-01  5.2330757752022794e-01  -1.0095780798324425e+00  -1.0069722361294493e+00  -9.2436886675155805e-01  1.8546945927674614e+00  -4.1298146374503719e-01  -8.4764379333788242e-01  -7.7619390600358318e-01  -3.2343646694883210e-01  -4.9999076532312481e-01  -3.8463215233832626e-01  1.5062312473115200e+00  8.8501498378973698e-01  7.2713261229573600e-01  -3.0964216249227855e-01  -7.5962784518962190e-01  -3.8032845975902146e-01  -2.8894048743772566e-01  -3.8566695999277123e-01  -2.6739225479304807e-01  -2.5790545355156402e-01  -5.9299162112283788e-01  4.4096119736537942e-01  1.7678195028779966e+00  5.9793468379878734e-01  -7.3838583769994959e-01  -6.5720583929227561e-01  -4.8934625518313102e-01  -1.1489076297837164e+00  1.5882434803018246e+00  -4.7659427208160288e-01  8.0320694255392755e-01  1.1920648429272274e+00  -3.3681824622780593e-01  5.9914820964369842e-01  5.1507282749535033e-01  6.2807526978562711e-01  2.1396544174036355e-01  1.0924301160683070e+00  1.0326884268645322e+00  -2.7734876977548817e-01  7.8932632346732701e-01  1.1975893859297340e+00  8.6714746416053823e-01  -1.1492309681794681e+00  -6.9945332380032232e-01  -2.5372678805373050e-01  2.2995639206466559e-01  -1.7994771763165451e-01  -7.8569437302360490e-01  6.7886629531971565e-01  -8.1628572690798085e-01  -5.6498908149814964e-01  2.5628616018420636e-01  4.0487820902443400e-01  8.9206068430977081e-01  -1.1290257470725473e-01  5.1567756355072336e-01  1.9167036356881295e+00  5.5952945676840982e-01  9.1894099307218494e-02  1.2375032319263048e-01  -7.8870794188096038e-01  1.7673147956663426e+00  1.7703735573574778e-01  -1.0245260691898326e+00  3.4896469173602640e-01  1.0710063389910376e+00  -1.0774896140968759e+00  -2.6179921153094121e-01  -5.6829734114084329e-01  -3.1571655363863294e-01  1.4810577759616721e+00  8.1833484208082152e-01  -3.0538940817726096e-01  -3.4588589426644140e-01  -9.1213461971588539e-01  1.1298858446007209e+00  -5.1138450229480181e-01  -6.3425502403382905e-01  1.3983043769439365e+00  -7.3458356395037683e-01  -4.5025980104594593e-01  6.2016536300395741e-01  -6.6098921313364423e-01  -5.9060208655901192e-01  1.3339424911835445e+00  1.0858342029051824e+00  -3.9737669225805261e-01  4.4097373376192744e-01  -7.2270047467716744e-02  -1.1135684676008024e+00  -2.0138665176513179e-01  8.6519058220679679e-01  8.5943689076440888e-01  1.6387120367510151e+00  1.8883314658909580e+00  1.4000953947169159e+00  4.6630966407768931e-01  4.4865905621335953e-02  1.0260474417290587e-01  3.7139873493732706e-01  -4.9409692085719784e-02  -7.7354359464990430e-01  -7.6010596897139882e-01  -3.8195876662503798e-02  7.3279640487289943e-01  -2.8903828073893756e-01  -3.1694574336619186e-01  -7.8444813756093690e-02  -4.4040129513187665e-01  1.4132261536042106e+00  4.6899849255217868e-01  4.7927308733906571e-01  -1.2267290055379290e+00  1.5336432934475814e+00  -2.6340258826333879e-01  -3.8632565987792744e-01  3.3156244308407701e-01  1.9125860782685662e+00  4.1091138561021945e-01  -1.4284705517003510e-01  1.6704855772851290e+00  -1.0332237347961697e+00  8.3960326665612994e-01  8.5704120883007651e-01  -6.5503732879861920e-01  7.8577127750471321e-01  8.4805651676721527e-01  9.9617083150525276e-01  -4.9648937338299715e-01  -2.3455687761217761e-01  -4.7747899771192470e-01  -2.5425556053080461e-01  5.7081385142977636e-01  1.0479898353904635e+00  -9.8753649321600723e-01  1.2655741097991406e+00  6.5273968864302401e-01  1.7010774070441359e+00  -8.5409649022297218e-01  3.7990163249082104e-01  4.0683859626131594e-02  2.6603997157129494e-01  -1.6063062601942671e-01  -3.7328072802076701e-02  9.2972759696562290e-01  4.6879280931735512e-01  -2.6836910363272237e-01  -6.9704372503687939e-01  -1.2266880471055082e+00  6.5068532468352214e-01  5.6608775391501820e-01  -2.7624501199015555e-01  -5.4690981379523129e-01  -3.6312002386244563e-01  -7.1219247646825001e-01  2.9241853537280016e-01  1.4074865659851465e+00  -2.4905515087607280e-01  8.6876475021450039e-01  9.9273429390446977e-02  1.3715098776063146e+00  6.1511188871319877e-01  -7.4818978796822078e-01  -7.2441334710791350e-01  7.7078917251805368e-01  -7.7814569829094515e-01  1.7811140230720159e+00  -6.1979111175350987e-02  -1.2294551938961877e+00  -5.1036430381852838e-01  4.1409851066478778e-02  2.8815381124144357e-01  -4.2798622776492146e-01  1.9280871173138792e-01  2.3105485372954201e-01  1.1710557360335432e+00  9.8943443395887587e-01  3.0729234652840137e-01  8.1227348014014389e-01  8.8669257055560269e-01  2.8921838261081778e-01  1.6431769092151418e+00  2.9309295801162916e-01  1.8030998829732421e+00  6.7285882131748753e-01  -2.5084955408418913e-01  3.9018130096865689e-01  -8.2039600332863405e-01  4.4971455807694294e-01  1.4951662635563474e+00  -6.1228422133455740e-01  1.7291835986793405e+00  1.1941087975167992e+00  7.5787816157321344e-02  -2.9384150176645890e-01  -8.9584196587306042e-01  1.0806251722533611e+00  -7.6639978599198322e-01  -2.6761530106854164e-01  2.2681345284322504e-01  5.2653947435414838e-01  -6.5946636158433505e-02  7.2866260462588192e-02  9.2152429380326695e-01  -1.2246676676987596e-01  7.0834647559106678e-01  8.0426781321102991e-01  -4.8480369884852637e-01  1.9410465818588343e+00  -8.0874431768910393e-01  9.4013498194200606e-01  8.7789490395525110e-02  -4.9162670132778835e-01  2.2449111670415176e-01  -2.1126088848028526e-01  7.0108313590185578e-01  5.6222686859353210e-01  -7.8908172586131878e-02  -3.9698210408436974e-01  8.8576985035925904e-01  1.2366475861546762e+00  -2.8589953366363557e-01  1.8707677383973425e+00  -4.6355062739889118e-02  -2.6620843152967288e-01  -7.6332435014913338e-02  6.9298933256159667e-01  9.9346959840346916e-01  3.4249427609452612e-02  -2.6293216105870421e-01  1.1206402167754759e+00  5.5986103550960531e-01  5.0286464375290385e-01  6.2762949342292029e-01  2.1327885172915020e-01  -8.3239815474904355e-01  9.3362234684030565e-01  1.1648167316399927e+00  -7.2011709006706559e-01  6.1128407059568324e-01  1.7265217787970215e+00  -3.2669608445268350e-01  -1.0842496478358981e+00  -1.1738633803269878e+00  9.5381727396265603e-01  -7.9829939020210094e-01  1.4630490214566405e+00  5.2363429851410992e-01  -8.5643490408424783e-01  -9.9313587687172278e-01  -1.1492966457933331e+00  -9.6367674971809014e-01  -6.8405863319462509e-02  -6.0659043649858646e-01  -6.7376427171471587e-01  7.1425465544110167e-01  1.9892117298579170e-03  8.9700263700438779e-02  1.2244578106403641e+00  9.7789114303022096e-01  1.1910474662457198e+00  4.2742435171519155e-02  1.2167499688342036e+00  1.5028813092019102e+00  4.2478468377658390e-01  4.1441422291317115e-01  5.9549554056359932e-01  1.4836066482806945e-01  -7.8672607503187508e-01  -7.6266678072681138e-01  1.9522190824397587e+00  -1.0795914885483575e-01  -2.2772245221443219e-01  7.1364422011083617e-01  -1.7014505312544939e-01  -1.3046154426055339e-02  1.1295583184863409e-02  -8.3538910793965671e-01  -1.