<?xml version="1.0"?>
<VTKFile type="UnstructuredGrid"  version="0.1"  >
<UnstructuredGrid>
<Piece  NumberOfPoints="6146" NumberOfCells="11816">
<Points>
<DataArray  type="Float64"  NumberOfComponents="3"  format="ascii">0 0 0  0 0.41 0  2.2 0 0  2.2 0.41 0  0.2 0.25 0  0.25 0.2 0  0.2 0.15 0  0.15 0.2 0  0 0.4000000000000008 0  0 0.3900000000000259 0  0 0.3800000000000606 0  0 0.3700000000000953 0  0 0.3600000000001082 0  0 0.3500000000001241 0  0 0.3400000000001558 0  0 0.3300000000001905 0  0 0.3200000000002133 0  0 0.3100000000002381 0  0 0.3000000000002728 0  0 0.2900000000003075 0  0 0.2800000000003204 0  0 0.2700000000003551 0  0 0.2600000000003897 0  0 0.2500000000004243 0  0 0.2400000000004419 0  0 0.2300000000004503 0  0 0.2200000000004849 0  0 0.2100000000005195 0  0 0.2000000000005203 0  0 0.1900000000004874 0  0 0.1800000000004544 0  0 0.1700000000004476 0  0 0.1600000000004316 0  0 0.1500000000003986 0  0 0.1400000000003795 0  0 0.1300000000003759 0  0 0.1200000000003428 0  0 0.1100000000003098 0  0 0.1000000000002768 0  0 0.09000000000024383 0  0 0.08000000000021068 0  0 0.07000000000020096 0  0 0.0600000000001879 0  0 0.05000000000015475 0  0 0.04000000000012166 0  0 0.03000000000008857 0  0 0.02000000000005536 0  0 0.01000000000002221 0  0.01007679662828254 0 0  0.02056899213655081 0 0  0.03149370747042262 0 0  0.04286877787651972 0 0  0.05471276293192491 0 0  0.06704499828634325 0 0  0.07988560641938237 0 0  0.09325554633647967 0 0  0.1071766410311884 0 0  0.1216716067611488 0 0  0.1367641016067741 0 0  0.152478764481749 0 0  0.1688412308389146 0 0  0.1858782107385222 0 0  0.2036175120042742 0 0  0.2220880805924512 0 0  0.2413200720246992 0 0  0.2613448680153237 0 0  0.2821951505493904 0 0  0.303904948281349 0 0  0.3265096961752511 0 0  0.350046282509153 0 0  0.3745531279755512 0 0  0.4000702232727447 0 0  0.4266392157867663 0 0  0.4543034693483497 0 0  0.4831081324012234 0 0  0.5131002188568834 0 0  0.54432867931559 0 0  0.5768444722696365 0 0  0.6107006746708104 0 0  0.6459525479050182 0 0  0.682657603414822 0 0  0.7208757746968344 0 0  0.7606694182609572 0 0  0.8021034816821726 0 0  0.8452455957902169 0 0  0.8901661663799046 0 0  0.9369385072466508 0 0  0.9856389585079668 0 0  1.036346998189458 0 0  1.089145397956563 0 0  1.144120312199143 0 0  1.201361473554013 0 0  1.260962300595225 0 0  1.323020078687202 0 0  1.387636074977323 0 0  1.45491573887162 0 0  1.524968897456634 0 0  1.597909863440663 0 0  1.673857723466354 0 0  1.752936382158491 0 0  1.835274909595432 0 0  1.921007725838496 0 0  2.010274709627921 0 0  2.103221572060948 0 0  2.2 0.08199999999981657 0  2.2 0.1639999999995688 0  2.2 0.2459999999995603 0  2.2 0.327999999999785 0  2.103221572061646 0.41 0  2.010274709629372 0.41 0  1.921007725840496 0.41 0  1.835274909597994 0.41 0  1.752936382161568 0.41 0  1.673857723469928 0.41 0  1.597909863444748 0.41 0  1.524968897461176 0.41 0  1.454915738876575 0.41 0  1.387636074982656 0.41 0  1.323020078692824 0.41 0  1.260962300601091 0.41 0  1.201361473560091 0.41 0  1.144120312205409 0.41 0  1.089145397962884 0.41 0  1.036346998195403 0.41 0  0.9856389585135474 0.41 0  0.9369385072518699 0.41 0  0.8901661663847817 0.41 0  0.845245595794772 0.41 0  0.802103481686421 0.41 0  0.760669418264917 0.41 0  0.7208757747005239 0.41 0  0.6826576034182545 0.41 0  0.6459525479082096 0.41 0  0.6107006746737729 0.41 0  0.5768444722723829 0.41 0  0.5443286793181334 0.41 0  0.5131002188592353 0.41 0  0.483108132403395 0.41 0  0.4543034693503529 0.41 0  0.4266392157886099 0.41 0  0.4000702232744378 0.41 0  0.3745531279771039 0.41 0  0.3500462825105728 0.41 0  0.3265096961765468 0.41 0  0.3039049482825278 0.41 0  0.2821951505504596 0.41 0  0.2613448680163102 0.41 0  0.2413200720256172 0.41 0  0.2220880805933043 0.41 0  0.2036175120050649 0.41 0  0.1858782107392414 0.41 0  0.1688412308395617 0.41 0  0.1524787644823298 0.41 0  0.1367641016072927 0.41 0  0.1216716067615997 0.41 0  0.1071766410315749 0.41 0  0.09325554633680744 0.41 0  0.07988560641965403 0.41 0  0.06704499828656418 0.41 0  0.05471276293210092 0.41 0  0.04286877787665544 0.41 0  0.03149370747052016 0.41 0  0.02056899213661323 0.41 0  0.01007679662831285 0.41 0  0.2009941093832422 0.2499901164885035 0  0.2019878257548352 0.2499604698613656 0  0.2029807562584742 0.2499110718390977 0  0.2039725083485626 0.2498419419507366 0  0.2049626899453778 0.2497531075261239 0  0.2059509095900689 0.2496446036851018 0  0.2069367765994233 0.2495164733236293 0  0.2079199012203332 0.2493687670968211 0  0.208899894783849 0.2492015433989262 0  0.209876369858873 0.2490148683402368 0  0.2108489404052936 0.2488088157209575 0  0.2118172219266183 0.248583467002027 0  0.2127808316219855 0.248338911272912 0  0.2137393885375067 0.2480752452163837 0  0.2146925137168532 0.2477925730703012 0  0.2156398303510693 0.247491006586403 0  0.2165809639275547 0.2471706649861239 0  0.2175155423781385 0.2468316749134561 0  0.2184431962261471 0.2464741703848905 0  0.2193635587324768 0.2460982927364335 0  0.2202762660405913 0.2457041905677276 0  0.2211809573203641 0.2452920196833053 0  0.2220772749107273 0.2448619430309942 0  0.2229648644610677 0.2444141306374986 0  0.2238433750713457 0.2439487595411649 0  0.2247124594307593 0.2434660137220228 0  0.2255717739550953 0.2429660840290282 0  0.2264209789225549 0.2424491681046155 0  0.227259738608055 0.2419154703065648 0  0.2280877214159585 0.2413652016272072 0  0.2289046000111568 0.2407985796100187 0  0.2297100514485014 0.2402158282636004 0  0.2305037573004443 0.2396171779731418 0  0.2312854037829426 0.2390028654093291 0  0.2320546818795267 0.2383731334347658 0  0.2328112874634348 0.2377282310079845 0  0.2335549214178666 0.2370684130850081 0  0.2342852897542382 0.2363939405185524 0  0.23500210372839 0.2357050799549172 0  0.2357050799547543 0.2350021037285561 0  0.236393940518396 0.2342852897544042 0  0.2370684130848552 0.2335549214180355 0  0.2377282310078377 0.2328112874636036 0  0.2383731334346237 0.2320546818796969 0  0.2390028654091947 0.2312854037831102 0  0.2396171779730177 0.2305037573006055 0  0.2402158282634863 0.2297100514486559 0  0.2407985796099098 0.2289046000113105 0  0.2413652016271038 0.2280877214161108 0  0.2419154703064672 0.2272597386082051 0  0.2424491681045289 0.2264209789226942 0  0.2429660840289533 0.2255717739552211 0  0.2434660137219522 0.2247124594308835 0  0.2439487595410967 0.2238433750714713 0  0.2444141306374335 0.2229648644611936 0  0.2448619430309386 0.2220772749108404 0  0.2452920196832561 0.2211809573204692 0  0.2457041905676833 0.2202762660406911 0  0.2460982927363924 0.2193635587325747 0  0.246474170384854 0.2184431962262392 0  0.2468316749134214 0.2175155423782314 0  0.2471706649860917 0.216580963927646 0  0.2474910065863757 0.215639830351152 0  0.2477925730702761 0.2146925137169349 0  0.2480752452163603 0.2137393885375889 0  0.2483389112728914 0.2127808316220633 0  0.248583467002012 0.2118172219266803 0  0.2488088157209458 0.2108489404053462 0  0.2490148683402261 0.2098763698589259 0  0.249201543398917 0.2088998947838999 0  0.2493687670968142 0.2079199012203759 0  0.2495164733236233 0.2069367765994661 0  0.2496446036850975 0.205950909590105 0  0.2497531075261207 0.2049626899454101 0  0.2498419419507343 0.2039725083485922 0  0.2499110718390968 0.2029807562584889 0  0.2499604698613655 0.2019878257548365 0  0.2499901164885035 0.2009941093832422 0  0.2499901164885035 0.1990058906167579 0  0.2499604698613656 0.1980121742451648 0  0.2499110718390977 0.1970192437415259 0  0.2498419419507366 0.1960274916514374 0  0.2497531075261239 0.1950373100546222 0  0.2496446036851018 0.1940490904099311 0  0.2495164733236293 0.1930632234005767 0  0.2493687670968211 0.1920800987796668 0  0.2492015433989262 0.191100105216151 0  0.2490148683402368 0.190123630141127 0  0.2488088157209575 0.1891510595947065 0  0.248583467002027 0.1881827780733817 0  0.248338911272912 0.1872191683780146 0  0.2480752452163837 0.1862606114624933 0  0.2477925730703012 0.1853074862831468 0  0.247491006586403 0.1843601696489307 0  0.2471706649861239 0.1834190360724454 0  0.2468316749134561 0.1824844576218615 0  0.2464741703848905 0.181556803773853 0  0.2460982927364335 0.1806364412675232 0  0.2457041905677276 0.1797237339594087 0  0.2452920196833053 0.1788190426796359 0  0.2448619430309942 0.1779227250892727 0  0.2444141306374986 0.1770351355389324 0  0.2439487595411649 0.1761566249286543 0  0.2434660137220228 0.1752875405692407 0  0.2429660840290282 0.1744282260449047 0  0.2424491681046155 0.1735790210774451 0  0.2419154703065648 0.172740261391945 0  0.2413652016272072 0.1719122785840415 0  0.2407985796100187 0.1710953999888432 0  0.2402158282636004 0.1702899485514986 0  0.2396171779731418 0.1694962426995557 0  0.2390028654093291 0.1687145962170574 0  0.2383731334347658 0.1679453181204733 0  0.2377282310079845 0.1671887125365652 0  0.2370684130850081 0.1664450785821334 0  0.2363939405185524 0.1657147102457618 0  0.2357050799549172 0.16499789627161 0  0.2350021037285561 0.1642949200452457 0  0.2342852897544042 0.1636060594816041 0  0.2335549214180355 0.1629315869151449 0  0.2328112874636036 0.1622717689921623 0  0.2320546818796969 0.1616268665653763 0  0.2312854037831102 0.1609971345908053 0  0.2305037573006055 0.1603828220269823 0  0.2297100514486559 0.1597841717365137 0  0.2289046000113105 0.1592014203900902 0  0.2280877214161108 0.1586347983728962 0  0.2272597386082051 0.1580845296935329 0  0.2264209789226942 0.1575508318954712 0  0.2255717739552211 0.1570339159710467 0  0.2247124594308835 0.1565339862780478 0  0.2238433750714713 0.1560512404589033 0  0.2229648644611936 0.1555858693625665 0  0.2220772749108404 0.1551380569690615 0  0.2211809573204692 0.1547079803167439 0  0.2202762660406911 0.1542958094323167 0  0.2193635587325747 0.1539017072636076 0  0.2184431962262392 0.153525829615146 0  0.2175155423782314 0.1531683250865786 0  0.216580963927646 0.1528293350139083 0  0.215639830351152 0.1525089934136243 0  0.2146925137169349 0.1522074269297239 
[...]
<PointData  Scalars="f_19"> 
<DataArray  type="Float64"  Name="f_19"  format="ascii">4.3496297040860255e-01  5.1906005889662887e-01  0.0000000000000000e+00  0.0000000000000000e+00  -7.7820072570276533e-01  -4.5898334281048647e-01  -1.1724238264381224e+00  1.9591944125659770e+00  5.1897347657607296e-01  5.1928853169272171e-01  5.2058641007177497e-01  5.2356400713245632e-01  5.2872530569856069e-01  5.3652584991312890e-01  5.4731092191689268e-01  5.6126779320389797e-01  5.7842864228558644e-01  5.9865027019667327e-01  6.2161264864355181e-01  6.4688055879392636e-01  6.7344437548296887e-01  7.0050450166319489e-01  7.2717660479641699e-01  7.5169696873088621e-01  7.7304050630060528e-01  7.9025103592931845e-01  8.0160237720402017e-01  8.0646469858769465e-01  8.0419593381001842e-01  7.9548997877450400e-01  7.7979192064087322e-01  7.5838843234819253e-01  7.3146068535688713e-01  7.0118126870454800e-01  6.6876847892028024e-01  6.3515930785338803e-01  6.0208672709390454e-01  5.7065070868325296e-01  5.4148026887834033e-01  5.1546916583233005e-01  4.9320334405118116e-01  4.7468654113980180e-01  4.6015157501033893e-01  4.4941056709818461e-01  4.4195754546939076e-01  4.3757138517846089e-01  4.3536528310515887e-01  4.3488763862461566e-01  4.3449002571586032e-01  4.3369740638747878e-01  4.3212579745752244e-01  4.2932513054474652e-01  4.2496864281549274e-01  4.1835472750913183e-01  4.0896635260176284e-01  3.9575885609258837e-01  3.7894368078290902e-01  3.5591590918815030e-01  3.2742724435931692e-01  2.9214630167010741e-01  2.5164481146424433e-01  2.0685296961466548e-01  1.5967517960330679e-01  1.1461340861754514e-01  7.6198974813761880e-02  4.9901230272886558e-02  3.3882922118814385e-02  4.0563457466668132e-02  6.1380609149267254e-02  1.0351918317759382e-01  1.5341921218942173e-01  2.1332019784306958e-01  2.7337471863819651e-01  3.1215349955825467e-01  3.3239168324564050e-01  3.1238015622313831e-01  2.5755997286223636e-01  1.7642056122246888e-01  1.1552409730301916e-01  8.5020794911350561e-02  7.6521699258872103e-02  9.1857107554008915e-02  1.4622255687364211e-01  2.2639979117564066e-01  2.8894254224541088e-01  2.9904655787782741e-01  2.5694481003495623e-01  1.9632085440958780e-01  8.8932393280328398e-02  -1.9326263837396749e-02  9.9515618604807364e-03  1.4912253709974432e-01  2.5605727404845258e-01  2.3185689756127165e-01  8.9025332985358238e-02  -6.6824394878818652e-02  -3.1811578712780120e-02  9.6140101074320541e-02  1.5925771706205530e-01  8.6193024677558530e-02  -7.4166141872660810e-02  -7.4532397400019684e-02  5.6401302984576407e-02  1.1443834782283954e-01  0.0000000000000000e+00  0.0000000000000000e+00  0.0000000000000000e+00  0.0000000000000000e+00  -1.3877411198358908e-01  -6.5380244097650628e-02  7.4846471156671410e-02  9.7781109751043510e-02  -2.0186083416345100e-03  -8.1646266209506574e-02  2.0304019455143617e-02  1.4313004503079207e-01  2.0087863809827369e-01  1.1338123195680019e-01  -6.7001900494705974e-02  -3.4540671455775517e-02  1.1860018884802173e-01  2.3550722726399118e-01  3.0357192112609843e-01  2.6372210245438282e-01  1.3369211497095820e-01  2.9960083318373711e-02  4.3802532579556255e-02  1.1983700864355591e-01  1.9285893925424311e-01  2.5575787643409054e-01  3.0629118329704408e-01  3.3940505640769303e-01  3.3507697127880548e-01  2.9240015056771612e-01  2.2054978461758221e-01  1.3770626183237894e-01  6.8555018257148714e-02  2.9151211642501770e-02  1.7872269358363418e-02  3.5435216108625128e-02  6.0784216620822500e-02  8.9383572790425553e-02  1.1684233462536754e-01  1.4577895521053649e-01  1.7489056625764618e-01  2.0951514930944024e-01  2.4480371724070477e-01  2.8417910032571764e-01  3.2214250015091650e-01  3.6031064021926434e-01  3.9429790040792195e-01  4.2429902017223697e-01  4.4851641882362203e-01  4.6800034957676273e-01  4.8262002438578488e-01  4.9366555477174939e-01  5.0127547408768203e-01  5.0682301024483101e-01  5.1079101438622376e-01  5.1355176821085768e-01  5.1551964784367488e-01  5.1690909291852649e-01  5.1784390981378625e-01  5.1849340587634329e-01  -7.6220504304792092e-01  -7.4593078612175234e-01  -7.2927356213719408e-01  -7.1235526655500203e-01  -6.9516100303871597e-01  -6.7807721413785849e-01  -6.6072150236062299e-01  -6.4357245457114531e-01  -6.2663298783237742e-01  -6.0950088755960996e-01  -5.9367536053582470e-01  -5.7727805758329009e-01  -5.6161492464534746e-01  -5.4653975364863872e-01  -5.3193944311537245e-01  -5.1761127732014867e-01  -5.0411304390434719e-01  -4.9096031424101072e-01  -4.7846822746452955e-01  -4.6647999702944876e-01  -4.5514195392089252e-01  -4.4424619391226788e-01  -4.3391427457027759e-01  -4.2409103454928093e-01  -4.1477161506635435e-01  -4.0597054626799012e-01  -3.9761970303045308e-01  -3.8976443634204272e-01  -3.8232100313959050e-01  -3.7534146661263640e-01  -3.6875837324540206e-01  -3.6264867421526459e-01  -3.5695446797632774e-01  -3.5174955718764911e-01  -3.4697977263870866e-01  -3.4271441574077904e-01  -3.3897676448768405e-01  -3.3571341191373039e-01  -3.3300654369959598e-01  -3.3082250237382949e-01  -3.2918471252703158e-01  -3.2806815632731151e-01  -3.2747705118969395e-01  -3.2738950102715325e-01  -3.2778541688499552e-01  -3.2864149652516095e-01  -3.2990909682685221e-01  -3.3157096297961158e-01  -3.3357039615321893e-01  -3.3588986079986710e-01  -3.3846872238877934e-01  -3.4130499253906477e-01  -3.4433139604142682e-01  -3.4754866790528438e-01  -3.5090099646507872e-01  -3.5439170731068931e-01  -3.5797076026616897e-01  -3.6165179565572042e-01  -3.6540054268004285e-01  -3.6922309571097478e-01  -3.7308493813217625e-01  -3.7700664091729447e-01  -3.8097413506211286e-01  -3.8497527659087621e-01  -3.8903229290485275e-01  -3.9315478450920976e-01  -3.9734521456990146e-01  -4.0161444956080233e-01  -4.0597021126805061e-01  -4.1044164963054830e-01  -4.1503375738202553e-01  -4.1979698074513250e-01  -4.2469367653529833e-01  -4.2983901840994265e-01  -4.3512948970875420e-01  -4.4067959418672703e-01  -4.4652020682931032e-01  -4.5261471618092486e-01  -4.6563332403189472e-01  -4.7262231293261614e-01  -4.7999821330917181e-01  -4.8762504605836282e-01  -4.9557801120265244e-01  -5.0389485962971170e-01  -5.1242068178156142e-01  -5.2130017160325892e-01  -5.3044547452590163e-01  -5.3976384150298540e-01  -5.4930706372464755e-01  -5.5899837269597052e-01  -5.6884986155493411e-01  -5.7873364295906615e-01  -5.8869809660644890e-01  -5.9861116387818936e-01  -6.0850891533112428e-01  -6.1828331538147663e-01  -6.2790169386481498e-01  -6.3737923407822528e-01  -6.4658908388245195e-01  -6.5558391420173134e-01  -6.6425400981498406e-01  -6.7264877289786418e-01  -6.8069122057786113e-01  -6.8839258010671667e-01  -6.9573272247044471e-01  -7.0267519158829050e-01  -7.0929592200409886e-01  -7.1553567231017634e-01  -7.2147320103462731e-01  -7.2708151737397431e-01  -7.3233569148813615e-01  -7.3739111836231030e-01  -7.4220207786126768e-01  -7.4684500787414088e-01  -7.5137287960530530e-01  -7.5576617001972335e-01  -7.6015285405076061e-01  -7.6451664111633399e-01  -7.6897710110557704e-01  -7.7360106590817057e-01  -7.7835091772767739e-01  -7.8328204169040616e-01  -7.8853434431135117e-01  -7.9409776777705521e-01  -8.0003394623178414e-01  -8.0628677374240620e-01  -8.1300848422400640e-01  -8.2017665827068498e-01  -8.2770383336807973e-01  -8.3569423349979033e-01  -8.4437845148378898e-01  -8.5341362462509751e-01  -8.6279856179033709e-01  -8.7281319210771346e-01  -8.8339168129576873e-01  -8.9431807672213159e-01  -9.0557476675485360e-01  -9.1747586380686208e-01  -9.2973710343760307e-01  -9.4243767326170791e-01  -9.5568028062774824e-01  -9.6907548321608006e-01  -9.8262037120225110e-01  -9.9665778436733410e-01  -1.0110234867791785e+00  -1.0253334301630586e+00  -1.0399212270420291e+00  -1.0544281994107352e+00  -1.0689158260098814e+00  -1.0831900364481135e+00  -1.0973753405876050e+00  -1.1113016859741465e+00  -1.1248037729105242e+00  -1.1377317838080823e+00  -1.1500272822543796e+00  -1.1615900646672768e+00  -1.1823198131653525e+00  -1.1912081890851627e+00  -1.1988696759260344e+00  -1.2048586789585838e+00  -1.2097280374547121e+00  -1.2135177137104651e+00  -1.2152935111349490e+00  -1.2153226418677492e+00  -1.2135544097635595e+00  -1.2099449952448069e+00  -1.2044030240237782e+00  -1.1966672538322474e+00  -1.1868530769163745e+00  -1.1746642430408527e+00  -1.1602693182880297e+00  -1.1434115431121639e+00  -1.1243172933834444e+00  -1.1026040085515789e+00  -1.0786867797240678e+00  -1.0522548925382367e+00  -1.0234177490289085e+00  -9.9204088178422256e-01  -9.5776555313178280e-01  -9.2144022906886325e-01  -8.8273098003900652e-01  -8.4129997592574224e-01  -7.9834551282381971e-01  -7.5186187914815028e-01  -7.0371838900991612e-01  -6.5343950703350340e-01  -6.0096081381363953e-01  -5.4617791390354198e-01  -4.8977366952114348e-01  -4.3132472174646541e-01  -3.7090188155147574e-01  -3.0910966675856488e-01  -2.4543007283880269e-01  -1.8074329951429410e-01  -1.1453790631859644e-01  -4.6812069232657912e-02  2.1831296313796347e-02  9.1122697823064078e-02  1.6151691403889551e-01  2.3263723291763472e-01  3.0398780692884242e-01  3.7588164274621727e-01  4.4784960385455469e-01  5.1976448166219424e-01  5.9178536705357010e-01  6.6351822317966525e-01  7.3480747902294330e-01  8.0537362471316809e-01  8.7535464834712673e-01  9.4422405909947793e-01  1.0121881569865563e+00  1.0790067376036667e+00  1.1444235744173872e+00  1.2078170589770871e+00  1.2701330229593124e+00  1.3301838472417480e+00  1.3880711163984476e+00  1.4442379257232449e+00  1.4980805630040057e+00  1.5493649168619688e+00  1.5980113293664429e+00  1.6442458669570346e+00  1.6878289951367638e+00  1.7280997452762967e+00  1.7657325516964819e+00  1.8001615449581529e+00  1.8314389213075641e+00  1.8594681265264255e+00  1.8842589912011671e+00  1.9052864253938622e+00  1.9231169688501832e+00  1.9374275609248908e+00  1.9487324993925461e+00  1.9557026738567642e+00  1.9594841507094918e+00  1.9560785162936252e+00  1.9491685377109538e+00  1.9387614819622792e+00  1.9247475801338456e+00  1.9074222699942174e+00  1.8861090873860176e+00  1.8618456117805806e+00  1.8343693296724790e+00  1.8036132747639497e+00  1.7698506956923870e+00  1.7328429365940563e+00  1.6931986036370799e+00  1.6507848179915685e+00  1.6053632673130716e+00  1.5576370877165213e+00  1.5071529169986524e+00  1.4544654822427525e+00  1.3995585370764261e+00  1.3422455833116171e+00  1.2840701856392107e+00  1.2236927272562323e+00  1.1613400886875260e+00  1.0979810843777249e+00  1.0331992065441991e+00  9.6755942246343551e-01  9.0080548461145626e-01  8.3329926994736803e-01  7.6559356275669788e-01  6.9708990230746626e-01  6.2844166481281194e-01  5.5995359879003825e-01  4.9140843873778833e-01  4.2307448915279244e-01  3.5521562739903934e-01  2.8816586604724254e-01  2.2167138388310675e-01  1.5598302942107767e-01  9.1380167908624924e-02  2.8331258448528261e-02  -3.3529582019076007e-02  -9.4093589117158247e-02  -1.5274566787202140e-01  -2.0996035071736119e-01  -2.6543706058644195e-01  -3.1860839643015221e-01  -3.6952416919634518e-01  -4.1872618866737799e-01  -4.6543539626528735e-01  -5.1000491306731910e-01  -5.5196631920038419e-01  -5.9150960401016195e-01  -6.2868705959871396e-01  -6.6324087850090641e-01  -6.9520618670839152e-01  -7.2522986052577953e-01  -7.5129282114399032e-01  -7.7568103258092347e-01  -7.9729799411770652e-01  -8.1641090638181524e-01  -8.3283263765413440e-01  -8.4676480296348722e-01  -8.5861952628546423e-01  -8.6760889512078687e-01  -8.7437052842835483e-01  -8.7878696318252625e-01  -8.8113581614937775e-01  -8.8134846767741570e-01  -8.7957599849428436e-01  -8.7611192198548948e-01  -8.7052391103129945e-01  -8.6347691889989364e-01  -8.5490940219002698e-01  -8.4417038448546100e-01  -8.3394350600420797e-01  -8.2086135820637729e-01  -8.0742190081966303e-01  -7.9312944964382903e-01  5.7143645927107434e-01  3.1861773047613529e-01  9.5693763786315478e-01  8.7516757871943895e-01  3.7929035101339548e-01  6.9377694321021185e-02  -6.5949886926354706e-01  1.5617247109938576e-02  -2.2007700546298892e-01  -4.1184275455260067e-01  6.5957359889501199e-01  9.3406423297038146e-02  7.8588370862283485e-01  2.9062742816019688e-01  -4.1389921343209596e-01  1.3071875571627192e+00  1.2882109965855046e+00  -6.3836194521796757e-02  -1.9803652267534533e-01  1.1691470810113211e+00  -2.3238047794434433e-01  -4.4595159609162854e-01  -3.4468026704231830e-01  -5.0017658530714326e-01  -8.0503832687434751e-01  4.8819495009619640e-01  7.2421333969994395e-01  5.9861385049052487e-02  -4.1632548200402064e-01  1.6325308930196420e+00  -6.2224927515925302e-02  -3.3933551997798067e-01  1.0035539209640680e+00  1.5928428640874293e+00  -3.9746444301203265e-01  1.5378548549611708e+00  -3.7079372306181613e-01  -2.9877707440340989e-01  1.2033995489666418e+00  -6.9998476647941943e-01  -7.5019323984678821e-01  -7.6172519038100694e-01  -6.5334150802540403e-01  -2.9995680378172429e-01  -3.9407285918540447e-01  -7.9147657023230578e-01  4.9401741701139035e-01  -2.7601928563932978e-02  2.5117598640504696e-01  9.5220478876074477e-01  -4.9843523993805733e-01  -6.8898033357745736e-01  1.8138559887552688e+00  1.2366890640283077e+00  7.0237996282164494e-01  -3.1440992344206797e-01  -6.7175576189805009e-01  5.3153165190940488e-01  -9.2938806010383057e-01  -9.4398011547687188e-01  -8.7530998776145541e-01  1.8162132096798649e+00  -5.3187995080022643e-01  -8.1194992605965688e-01  -7.5693543458278445e-01  -4.4873419727748470e-01  -6.1106416816348674e-01  -1.0262873625596368e-01  1.5303142562957837e+00  7.8288491163142804e-01  6.7980330963449598e-01  -3.5545686434042234e-01  -7.3422237395691814e-01  -4.7166074197896157e-01  -3.6018237546051435e-01  -4.0436487794378545e-01  -3.3199596881182858e-01  -3.1873554282982697e-01  -7.1605226139114053e-01  3.1845940290128433e-01  1.7735528959096605e+00  5.4605591717414037e-01  -6.9109941797118213e-01  -5.8777611932166796e-01  -5.9399694149867732e-01  -1.0690077218239487e+00  1.5167324258888017e+00  -4.5659486746842359e-01  7.5404961465740949e-01  1.2373154280510337e+00  -4.1760961808999919e-01  5.4108078664699466e-01  4.6306767473298960e-01  6.3640791931645180e-01  9.0741747076461210e-02  1.0897211170423156e+00  9.8546187083348558e-01  -3.3633693703426121e-01  7.8279819153056485e-01  1.1637737595702982e+00  8.3531686429131136e-01  -1.0751149724324924e+00  -6.3419033185677343e-01  -1.5568989796337593e-01  3.0663544374559348e-01  -9.4693008948698684e-02  -6.9422710539683141e-01  6.8187377758913581e-01  -7.8702755406315206e-01  -5.1247754148083347e-01  1.9389918009763787e-01  4.1298333384602542e-01  9.0143818962359057e-01  -8.6107131048128185e-02  3.9722197715728486e-01  1.8922861323056162e+00  5.0846202709704580e-01  1.9028556292488089e-01  3.1265793876314944e-02  -7.6251234445188298e-01  1.7082517593884741e+00  1.9078678109801417e-01  -9.6603228984283562e-01  3.7605168147318008e-01  1.0116618585987927e+00  -9.8649473901203322e-01  -3.9486657419138693e-01  -7.0149454488066065e-01  -2.8747520976815200e-01  1.4699599466397768e+00  8.7945602570527259e-01  -3.5772628448127242e-01  -3.8358487334327801e-01  -8.6851406838222112e-01  1.0313512634108355e+00  -4.1912496693674517e-01  -7.5535198269756476e-01  1.3661041803939751e+00  -6.9825713451807103e-01  -5.4727461022046953e-01  5.5371026361476050e-01  -7.9303493963858773e-01  -7.0491167835373292e-01  1.2686245550043551e+00  1.0712625817173376e+00  -4.8643212950570924e-01  4.5056434250202188e-01  -8.1912112517561156e-02  -1.0463627269764231e+00  -3.0534176914476041e-01  7.9358272924503559e-01  8.7949270196564011e-01  1.6614749085483607e+00  1.8818603151468594e+00  1.3127536449233503e+00  4.0870659152500682e-01  8.9138807191741290e-02  1.9769887046824704e-02  4.1452343166619471e-01  -1.2589531484721606e-01  -7.4398651042061781e-01  -7.2233555196605670e-01  -1.4458813782957036e-01  6.7830205088888762e-01  -3.5895250012172769e-01  -3.9242381362850270e-01  -2.1156185324144380e-01  -2.4411386324265055e-01  1.4507989875565459e+00  4.8344094766739576e-01  4.8887004862673655e-01  -1.1388847561285198e+00  1.4919188858971262e+00  -3.2834405455329774e-01  -4.0718246447823803e-01  3.3859131137036741e-01  1.8742321682826291e+00  4.8740765438284966e-01  -1.1121927500387964e-01  1.6577064769264378e+00  -9.3614550636156368e-01  7.9682618869166433e-01  7.4571831957145551e-01  -5.8477802054702388e-01  7.4477498616295379e-01  8.3015332508769291e-01  1.0218972745331834e+00  -8.9958020930406490e-01  -2.1382419746602660e-01  -6.1513443204635010e-01  -2.0035215158043371e-01  5.1851022611732533e-01  1.0203635851490513e+00  -9.3540132324806269e-01  1.2635877892938450e+00  6.0187433828301151e-01  1.6604489134984852e+00  -8.1956412471554796e-01  2.9897822609715724e-01  -1.5923176090429422e-02  2.0002474389189553e-01  -2.4446388285198917e-01  -1.1164840184637159e-02  9.2041611618838981e-01  4.1739762521446050e-01  -3.3200594204068201e-01  -8.2687561328380943e-01  -1.1339580808235414e+00  6.0065857180755566e-01  5.7222847751539130e-01  -3.4393130141943395e-01  -6.5490360304387663e-01  -4.4635568586223989e-01  -6.6389640329289124e-01  3.1020215031694010e-01  1.4249322033587910e+00  -3.4316300123381416e-01  8.1671451184972321e-01  2.7037451290039809e-02  1.3769385603573676e+00  6.4361378795148783e-01  -6.9960119754952443e-01  -6.6365843021055337e-01  7.7680052192727267e-01  -6.8090005761233163e-01  1.7524747478811187e+00  2.6115363842020085e-02  -1.1479887506217537e+00  -4.7583976131797712e-01  -9.3664609664635592e-02  2.4716076500342424e-01  -4.2968905985193190e-01  2.0328890172422090e-01  1.0221712683190926e-01  1.1475367565829473e+00  1.0481271305316471e+00  2.4345794235547982e-01  7.2883897099656048e-01  9.2596303572097738e-01  1.4151857240765411e-01  1.5699078879583110e+00  1.9870020724153620e-01  1.8114607085233079e+00  6.7339169979495561e-01  -3.2199537974187198e-01  3.3408170687337513e-01  -7.8206709606551372e-01  3.5180904822154679e-01  1.4716688459748126e+00  -5.4565657584784977e-01  1.6774532841803811e+00  1.1511748633535515e+00  9.2227618821977594e-02  -3.8144217023810606e-01  -8.5571088909979998e-01  1.0861507725662405e+00  -7.5266819420852582e-01  -3.2654968984564620e-01  1.5097738409407280e-01  4.7672128295528932e-01  -5.0004623349723561e-02  1.1096951981162295e-01  8.7658765833887464e-01  -1.2369587948289158e-03  7.1989838379861903e-01  8.0128273296292207e-01  -4.3820120497326065e-01  1.9240338985701764e+00  -7.8029120648189987e-01  9.0827541426701575e-01  -1.5441402563297830e-02  -4.1695433890425670e-01  1.6037227487485251e-01  -3.2585689837651677e-01  6.4961453595644192e-01  5.0852353152476304e-01  -1.7616033473022064e-01  -3.0298483294290607e-01  7.9504879041527987e-01  1.2851227779402774e+00  -3.4609022429250802e-01  1.8206097656949187e+00  -7.4979133792156642e-03  -4.0390712409428681e-01  -5.3418396106477528e-02  6.2178294845324678e-01  9.8707004779529584e-01  9.5087990067526940e-02  -3.2856017178986485e-01  1.0358970102565259e+00  5.0865640777240051e-01  4.3900047792274927e-01  6.9931851488033747e-01  2.9597474493947101e-01  -6.3278049293111382e-01  9.3577448226162940e-01  1.1008121190336757e+00  -6.5872930180070222e-01  4.9107720563772544e-01  1.7239038795664297e+00  -3.7393913572344450e-01  -1.0218032917483426e+00  -1.1011676680462612e+00  9.9951570806892787e-01  -7.7200145544587018e-01  1.4100838945456742e+00  5.7629738914662076e-01  -7.8940873680141388e-01  -7.7074497518353280e-01  -1.0520393883271386e+00  -8.6483025560269167e-01  5.2844777342249917e-03  -7.4487289975157278e-01  -8.0999042899975160e-01  6.5497371489475165e-01  -1.0796579314697792e-01  1.1001686854677904e-01  1.1263167460401879e+00  9.2378058897518023e-01  1.2121703381161781e+00  -9.0833912945561465e-02  1.2072735812063342e+00  1.4346889680070742e+00  4.3442370303957056e-01  4.2308141309862657e-01  5.4381666584202548e-01  2.6341444505162814e-01  -7.5809068954819181e-01  -7.3442641334400893e-01  1.9242227997141914e+00  -1.8965114815862369e-01  -2.8362484359847112e-01  6.6732144284380124e-01  -1.2959884796078414e-01  3.8924438652290037e-03  -7.1010395693003242e-02  -8.0383470832867088e