<?xml version="1.0"?>
<VTKFile type="UnstructuredGrid"  version="0.1"  >
<UnstructuredGrid>
<Piece  NumberOfPoints="6146" NumberOfCells="11816">
<Points>
<DataArray  type="Float64"  NumberOfComponents="3"  format="ascii">0 0 0  0 0.41 0  2.2 0 0  2.2 0.41 0  0.2 0.25 0  0.25 0.2 0  0.2 0.15 0  0.15 0.2 0  0 0.4000000000000008 0  0 0.3900000000000259 0  0 0.3800000000000606 0  0 0.3700000000000953 0  0 0.3600000000001082 0  0 0.3500000000001241 0  0 0.3400000000001558 0  0 0.3300000000001905 0  0 0.3200000000002133 0  0 0.3100000000002381 0  0 0.3000000000002728 0  0 0.2900000000003075 0  0 0.2800000000003204 0  0 0.2700000000003551 0  0 0.2600000000003897 0  0 0.2500000000004243 0  0 0.2400000000004419 0  0 0.2300000000004503 0  0 0.2200000000004849 0  0 0.2100000000005195 0  0 0.2000000000005203 0  0 0.1900000000004874 0  0 0.1800000000004544 0  0 0.1700000000004476 0  0 0.1600000000004316 0  0 0.1500000000003986 0  0 0.1400000000003795 0  0 0.1300000000003759 0  0 0.1200000000003428 0  0 0.1100000000003098 0  0 0.1000000000002768 0  0 0.09000000000024383 0  0 0.08000000000021068 0  0 0.07000000000020096 0  0 0.0600000000001879 0  0 0.05000000000015475 0  0 0.04000000000012166 0  0 0.03000000000008857 0  0 0.02000000000005536 0  0 0.01000000000002221 0  0.01007679662828254 0 0  0.02056899213655081 0 0  0.03149370747042262 0 0  0.04286877787651972 0 0  0.05471276293192491 0 0  0.06704499828634325 0 0  0.07988560641938237 0 0  0.09325554633647967 0 0  0.1071766410311884 0 0  0.1216716067611488 0 0  0.1367641016067741 0 0  0.152478764481749 0 0  0.1688412308389146 0 0  0.1858782107385222 0 0  0.2036175120042742 0 0  0.2220880805924512 0 0  0.2413200720246992 0 0  0.2613448680153237 0 0  0.2821951505493904 0 0  0.303904948281349 0 0  0.3265096961752511 0 0  0.350046282509153 0 0  0.3745531279755512 0 0  0.4000702232727447 0 0  0.4266392157867663 0 0  0.4543034693483497 0 0  0.4831081324012234 0 0  0.5131002188568834 0 0  0.54432867931559 0 0  0.5768444722696365 0 0  0.6107006746708104 0 0  0.6459525479050182 0 0  0.682657603414822 0 0  0.7208757746968344 0 0  0.7606694182609572 0 0  0.8021034816821726 0 0  0.8452455957902169 0 0  0.8901661663799046 0 0  0.9369385072466508 0 0  0.9856389585079668 0 0  1.036346998189458 0 0  1.089145397956563 0 0  1.144120312199143 0 0  1.201361473554013 0 0  1.260962300595225 0 0  1.323020078687202 0 0  1.387636074977323 0 0  1.45491573887162 0 0  1.524968897456634 0 0  1.597909863440663 0 0  1.673857723466354 0 0  1.752936382158491 0 0  1.835274909595432 0 0  1.921007725838496 0 0  2.010274709627921 0 0  2.103221572060948 0 0  2.2 0.08199999999981657 0  2.2 0.1639999999995688 0  2.2 0.2459999999995603 0  2.2 0.327999999999785 0  2.103221572061646 0.41 0  2.010274709629372 0.41 0  1.921007725840496 0.41 0  1.835274909597994 0.41 0  1.752936382161568 0.41 0  1.673857723469928 0.41 0  1.597909863444748 0.41 0  1.524968897461176 0.41 0  1.454915738876575 0.41 0  1.387636074982656 0.41 0  1.323020078692824 0.41 0  1.260962300601091 0.41 0  1.201361473560091 0.41 0  1.144120312205409 0.41 0  1.089145397962884 0.41 0  1.036346998195403 0.41 0  0.9856389585135474 0.41 0  0.9369385072518699 0.41 0  0.8901661663847817 0.41 0  0.845245595794772 0.41 0  0.802103481686421 0.41 0  0.760669418264917 0.41 0  0.7208757747005239 0.41 0  0.6826576034182545 0.41 0  0.6459525479082096 0.41 0  0.6107006746737729 0.41 0  0.5768444722723829 0.41 0  0.5443286793181334 0.41 0  0.5131002188592353 0.41 0  0.483108132403395 0.41 0  0.4543034693503529 0.41 0  0.4266392157886099 0.41 0  0.4000702232744378 0.41 0  0.3745531279771039 0.41 0  0.3500462825105728 0.41 0  0.3265096961765468 0.41 0  0.3039049482825278 0.41 0  0.2821951505504596 0.41 0  0.2613448680163102 0.41 0  0.2413200720256172 0.41 0  0.2220880805933043 0.41 0  0.2036175120050649 0.41 0  0.1858782107392414 0.41 0  0.1688412308395617 0.41 0  0.1524787644823298 0.41 0  0.1367641016072927 0.41 0  0.1216716067615997 0.41 0  0.1071766410315749 0.41 0  0.09325554633680744 0.41 0  0.07988560641965403 0.41 0  0.06704499828656418 0.41 0  0.05471276293210092 0.41 0  0.04286877787665544 0.41 0  0.03149370747052016 0.41 0  0.02056899213661323 0.41 0  0.01007679662831285 0.41 0  0.2009941093832422 0.2499901164885035 0  0.2019878257548352 0.2499604698613656 0  0.2029807562584742 0.2499110718390977 0  0.2039725083485626 0.2498419419507366 0  0.2049626899453778 0.2497531075261239 0  0.2059509095900689 0.2496446036851018 0  0.2069367765994233 0.2495164733236293 0  0.2079199012203332 0.2493687670968211 0  0.208899894783849 0.2492015433989262 0  0.209876369858873 0.2490148683402368 0  0.2108489404052936 0.2488088157209575 0  0.2118172219266183 0.248583467002027 0  0.2127808316219855 0.248338911272912 0  0.2137393885375067 0.2480752452163837 0  0.2146925137168532 0.2477925730703012 0  0.2156398303510693 0.247491006586403 0  0.2165809639275547 0.2471706649861239 0  0.2175155423781385 0.2468316749134561 0  0.2184431962261471 0.2464741703848905 0  0.2193635587324768 0.2460982927364335 0  0.2202762660405913 0.2457041905677276 0  0.2211809573203641 0.2452920196833053 0  0.2220772749107273 0.2448619430309942 0  0.2229648644610677 0.2444141306374986 0  0.2238433750713457 0.2439487595411649 0  0.2247124594307593 0.2434660137220228 0  0.2255717739550953 0.2429660840290282 0  0.2264209789225549 0.2424491681046155 0  0.227259738608055 0.2419154703065648 0  0.2280877214159585 0.2413652016272072 0  0.2289046000111568 0.2407985796100187 0  0.2297100514485014 0.2402158282636004 0  0.2305037573004443 0.2396171779731418 0  0.2312854037829426 0.2390028654093291 0  0.2320546818795267 0.2383731334347658 0  0.2328112874634348 0.2377282310079845 0  0.2335549214178666 0.2370684130850081 0  0.2342852897542382 0.2363939405185524 0  0.23500210372839 0.2357050799549172 0  0.2357050799547543 0.2350021037285561 0  0.236393940518396 0.2342852897544042 0  0.2370684130848552 0.2335549214180355 0  0.2377282310078377 0.2328112874636036 0  0.2383731334346237 0.2320546818796969 0  0.2390028654091947 0.2312854037831102 0  0.2396171779730177 0.2305037573006055 0  0.2402158282634863 0.2297100514486559 0  0.2407985796099098 0.2289046000113105 0  0.2413652016271038 0.2280877214161108 0  0.2419154703064672 0.2272597386082051 0  0.2424491681045289 0.2264209789226942 0  0.2429660840289533 0.2255717739552211 0  0.2434660137219522 0.2247124594308835 0  0.2439487595410967 0.2238433750714713 0  0.2444141306374335 0.2229648644611936 0  0.2448619430309386 0.2220772749108404 0  0.2452920196832561 0.2211809573204692 0  0.2457041905676833 0.2202762660406911 0  0.2460982927363924 0.2193635587325747 0  0.246474170384854 0.2184431962262392 0  0.2468316749134214 0.2175155423782314 0  0.2471706649860917 0.216580963927646 0  0.2474910065863757 0.215639830351152 0  0.2477925730702761 0.2146925137169349 0  0.2480752452163603 0.2137393885375889 0  0.2483389112728914 0.2127808316220633 0  0.248583467002012 0.2118172219266803 0  0.2488088157209458 0.2108489404053462 0  0.2490148683402261 0.2098763698589259 0  0.249201543398917 0.2088998947838999 0  0.2493687670968142 0.2079199012203759 0  0.2495164733236233 0.2069367765994661 0  0.2496446036850975 0.205950909590105 0  0.2497531075261207 0.2049626899454101 0  0.2498419419507343 0.2039725083485922 0  0.2499110718390968 0.2029807562584889 0  0.2499604698613655 0.2019878257548365 0  0.2499901164885035 0.2009941093832422 0  0.2499901164885035 0.1990058906167579 0  0.2499604698613656 0.1980121742451648 0  0.2499110718390977 0.1970192437415259 0  0.2498419419507366 0.1960274916514374 0  0.2497531075261239 0.1950373100546222 0  0.2496446036851018 0.1940490904099311 0  0.2495164733236293 0.1930632234005767 0  0.2493687670968211 0.1920800987796668 0  0.2492015433989262 0.191100105216151 0  0.2490148683402368 0.190123630141127 0  0.2488088157209575 0.1891510595947065 0  0.248583467002027 0.1881827780733817 0  0.248338911272912 0.1872191683780146 0  0.2480752452163837 0.1862606114624933 0  0.2477925730703012 0.1853074862831468 0  0.247491006586403 0.1843601696489307 0  0.2471706649861239 0.1834190360724454 0  0.2468316749134561 0.1824844576218615 0  0.2464741703848905 0.181556803773853 0  0.2460982927364335 0.1806364412675232 0  0.2457041905677276 0.1797237339594087 0  0.2452920196833053 0.1788190426796359 0  0.2448619430309942 0.1779227250892727 0  0.2444141306374986 0.1770351355389324 0  0.2439487595411649 0.1761566249286543 0  0.2434660137220228 0.1752875405692407 0  0.2429660840290282 0.1744282260449047 0  0.2424491681046155 0.1735790210774451 0  0.2419154703065648 0.172740261391945 0  0.2413652016272072 0.1719122785840415 0  0.2407985796100187 0.1710953999888432 0  0.2402158282636004 0.1702899485514986 0  0.2396171779731418 0.1694962426995557 0  0.2390028654093291 0.1687145962170574 0  0.2383731334347658 0.1679453181204733 0  0.2377282310079845 0.1671887125365652 0  0.2370684130850081 0.1664450785821334 0  0.2363939405185524 0.1657147102457618 0  0.2357050799549172 0.16499789627161 0  0.2350021037285561 0.1642949200452457 0  0.2342852897544042 0.1636060594816041 0  0.2335549214180355 0.1629315869151449 0  0.2328112874636036 0.1622717689921623 0  0.2320546818796969 0.1616268665653763 0  0.2312854037831102 0.1609971345908053 0  0.2305037573006055 0.1603828220269823 0  0.2297100514486559 0.1597841717365137 0  0.2289046000113105 0.1592014203900902 0  0.2280877214161108 0.1586347983728962 0  0.2272597386082051 0.1580845296935329 0  0.2264209789226942 0.1575508318954712 0  0.2255717739552211 0.1570339159710467 0  0.2247124594308835 0.1565339862780478 0  0.2238433750714713 0.1560512404589033 0  0.2229648644611936 0.1555858693625665 0  0.2220772749108404 0.1551380569690615 0  0.2211809573204692 0.1547079803167439 0  0.2202762660406911 0.1542958094323167 0  0.2193635587325747 0.1539017072636076 0  0.2184431962262392 0.153525829615146 0  0.2175155423782314 0.1531683250865786 0  0.216580963927646 0.1528293350139083 0  0.215639830351152 0.1525089934136243 0  0.2146925137169349 0.1522074269297239 
[...]
<PointData  Scalars="f_19"> 
<DataArray  type="Float64"  Name="f_19"  format="ascii">3.6001170729654708e-01  4.4012608983874602e-01  0.0000000000000000e+00  0.0000000000000000e+00  -8.0794879673729769e-01  -5.1041701382207016e-01  -1.1417974024329156e+00  1.8842188746110178e+00  4.4003752800001894e-01  4.4043754301882498e-01  4.4192531901312471e-01  4.4519542720161470e-01  4.5074934840083275e-01  4.5902580204161558e-01  4.7035563554442861e-01  4.8490414491722861e-01  5.0268396928434145e-01  5.2352236591363499e-01  5.4707632079448687e-01  5.7289017113265095e-01  5.9991928579277687e-01  6.2734086848963422e-01  6.5427538171465394e-01  6.7892339073295971e-01  7.0026346019386010e-01  7.1735318886073451e-01  7.2846528097110319e-01  7.3299590782289581e-01  7.3032042806247843e-01  7.2116673616950244e-01  7.0500610355754567e-01  6.8315075374447642e-01  6.5580152580702311e-01  6.2515793064688641e-01  5.9244760483409142e-01  5.5861980144159040e-01  5.2540800612455074e-01  4.9391847868672273e-01  4.6477627206836902e-01  4.3886319940621155e-01  4.1676237566608149e-01  3.9846413279776338e-01  3.8418198452101943e-01  3.7370919410199632e-01  3.6651869627905331e-01  3.6236074973860888e-01  3.6032666123343454e-01  3.5993379365763634e-01  3.5953761434316994e-01  3.5884192438331475e-01  3.5752867891538559e-01  3.5520357489874915e-01  3.5157454431414870e-01  3.4593697408353752e-01  3.3782951305058362e-01  3.2611497713194448e-01  3.1086404947506996e-01  2.8927324240091212e-01  2.6185427428637492e-01  2.2682072083459520e-01  1.8537650295948355e-01  1.3775801513792266e-01  8.5086831060392942e-02  3.1414938937244667e-02  -1.8712078194350990e-02  -6.1858921074839569e-02  -9.7712490980542591e-02  -1.1420844312246765e-01  -1.1939464240557340e-01  -1.0204353145735329e-01  -7.3530362730741261e-02  -2.1737240567209923e-02  4.5846541281696102e-02  1.1570641645965886e-01  1.8740464904665882e-01  2.3505430850789255e-01  2.5243919994956232e-01  2.2812996097888494e-01  1.5463035998781885e-01  7.2277247266259462e-02  2.0280280552393257e-02  2.1642320308144312e-02  4.0411655585240368e-02  5.8005441833670277e-02  1.1019359388866853e-01  1.6860654822406954e-01  1.9279291033514176e-01  1.7719931435166322e-01  1.3429051331180358e-01  8.3794632540073952e-02  1.2489681056903013e-02  -6.2258259653810911e-02  -4.3628695859954499e-02  9.1435238948614259e-02  1.0947820945452438e-01  7.4170906491012267e-02  -2.6959248840678848e-02  -9.9641890591164184e-02  -1.2034797770132330e-01  -1.1155057264484924e-01  -6.4560856505852388e-02  6.8898072292580851e-03  5.0386117144179364e-03  -2.0496358483383903e-05  0.0000000000000000e+00  0.0000000000000000e+00  0.0000000000000000e+00  0.0000000000000000e+00  -3.1531176975480844e-03  -2.5736428839589549e-02  -5.5818508015864216e-02  -8.1327962370420295e-02  -4.7149021989016750e-02  1.4125683436550579e-02  -2.1468355170917424e-02  -9.8114255617945678e-02  -1.0330072318170029e-01  -5.1112439249335818e-02  -8.9898259437945613e-04  7.6359328467519486e-02  1.4549401366125878e-01  1.6861174187649799e-01  1.1100280563942182e-01  2.4618273717807421e-02  2.2232140806238980e-03  4.2285530316013849e-02  8.1187274442786964e-02  1.2563062576929093e-01  1.9909703687198632e-01  2.6035941862289352e-01  2.5898790586082832e-01  2.3384219880519244e-01  1.6485263246785781e-01  7.3907559001487849e-02  -3.0914874414060753e-03  -5.7726493205429129e-02  -7.9617967583480789e-02  -7.1193509893740153e-02  -5.1253570699234322e-02  -2.6594487100189045e-02  -5.7154244042667435e-03  1.2769311689595856e-02  3.1087323374164054e-02  5.3243522018061817e-02  7.7386216106465733e-02  1.0951211205231438e-01  1.4362341375502033e-01  1.8308769753237072e-01  2.2191810421555289e-01  2.6151940759647085e-01  2.9730792094754549e-01  3.2943553392947184e-01  3.5589227627622211e-01  3.7770839061787054e-01  3.9460784577414371e-01  4.0774320610342679e-01  4.1717714842555653e-01  4.2431691475152938e-01  4.2953853387400587e-01  4.3324043613801383e-01  4.3587968806735150e-01  4.3768013760282842e-01  4.3883670631713700e-01  4.3956623559711966e-01  -7.9386411547944791e-01  -7.7952932573401801e-01  -7.6484866229568482e-01  -7.4993176049609234e-01  -7.3476743647889142e-01  -7.1972037885039675e-01  -7.0442377524361854e-01  -6.8933537424258251e-01  -6.7445112380004368e-01  -6.5938890976964548e-01  -6.4556275544584585e-01  -6.3119937042919005e-01  -6.1752725679765119e-01  -6.0440084691670670e-01  -5.9171559641653737e-01  -5.7928141122936883e-01  -5.6761032047757431e-01  -5.5625737586167845e-01  -5.4550770660277037e-01  -5.3521935112642594e-01  -5.2552275969238449e-01  -5.1622796530235582e-01  -5.0744758035981596e-01  -4.9912562410619843e-01  -4.9126041891928957e-01  -4.8385816423721095e-01  -4.7685746711186444e-01  -4.7028854250101743e-01  -4.6407297283700311e-01  -4.5824157494644119e-01  -4.5272769640135907e-01  -4.4758033820476212e-01  -4.4273810883522291e-01  -4.3824472732007025e-01  -4.3404009435128860e-01  -4.3016615870105396e-01  -4.2662016509731043e-01  -4.2335635342287486e-01  -4.2043217835456398e-01  -4.1781191044302662e-01  -4.1551879007576736e-01  -4.1352591246356674e-01  -4.1185648945578046e-01  -4.1048925618819659e-01  -4.0944265165063048e-01  -4.0869570650344500e-01  -4.0824190164130070e-01  -4.0806845461079422e-01  -4.0816659330766841e-01  -4.0853082318221123e-01  -4.0915224446696402e-01  -4.1001762223659655e-01  -4.1111120330534551e-01  -4.1243376335959181e-01  -4.1396932098370487e-01  -4.1572047191756262e-01  -4.1767057557854081e-01  -4.1982552755713642e-01  -4.2216276003762299e-01  -4.2469435320225651e-01  -4.2741149528560796e-01  -4.3032371928700092e-01  -4.3341206696373102e-01  -4.3672732435921380e-01  -4.4023643612030511e-01  -4.4394094857799032e-01  -4.4783459623414784e-01  -4.5192302715244559e-01  -4.5617888497272813e-01  -4.6070769733135036e-01  -4.6543000804256396e-01  -4.7037509502893637e-01  -4.7549125641974044e-01  -4.8088333984179377e-01  -4.8638843159685713e-01  -4.9210395120127098e-01  -4.9806025197992476e-01  -5.0416015591386076e-01  -5.1680803810352438e-01  -5.2333640896120903e-01  -5.3003135689576275e-01  -5.3678604507651573e-01  -5.4359594685217116e-01  -5.5050103232715419e-01  -5.5738578044858778e-01  -5.6429374854487435e-01  -5.7120615977150035e-01  -5.7802437618026203e-01  -5.8479210501784007e-01  -5.9143961049882143e-01  -5.9799823083030113e-01  -6.0437380334323654e-01  -6.1060516086159844e-01  -6.1664164646447461e-01  -6.2247837288139940e-01  -6.2810545000463969e-01  -6.3348135233794389e-01  -6.3864934049037880e-01  -6.4354520390083758e-01  -6.4821754024517508e-01  -6.5261888221545938e-01  -6.5679375315816513e-01  -6.6074542704431316e-01  -6.6446806569662031e-01  -6.6799381876431030e-01  -6.7130250811867742e-01  -6.7445219010158930e-01  -6.7744703527695427e-01  -6.8034441250410893e-01  -6.8315103565334134e-01  -6.8584934238310924e-01  -6.8856589714823291e-01  -6.9128773289674239e-01  -6.9406610132144875e-01  -6.9694917963056124e-01  -6.9993402304663344e-01  -7.0311091322032082e-01  -7.0647426879413577e-01  -7.1010227041284302e-01  -7.1403837282276150e-01  -7.1826560818810259e-01  -7.2282143634311602e-01  -7.2779339369433715e-01  -7.3316361520137929e-01  -7.3898224841252147e-01  -7.4519808493798168e-01  -7.5192893210878797e-01  -7.5913509807880708e-01  -7.6675214791102653e-01  -7.7486513732401241e-01  -7.8366351789990008e-01  -7.9284943881018910e-01  -8.0243653335724385e-01  -8.1267044874364147e-01  -8.2348753882141235e-01  -8.3471002350440515e-01  -8.4632493282424037e-01  -8.5862720774778967e-01  -8.7135315750876396e-01  -8.8459659579085947e-01  -8.9844712466966614e-01  -9.1255169922356882e-01  -9.2691800190253804e-01  -9.4187272035667935e-01  -9.5725605386681234e-01  -9.7272026799425404e-01  -9.8858073184204709e-01  -1.0044911679937361e+00  -1.0205304953013881e+00  -1.0364945249117408e+00  -1.0525230899346900e+00  -1.0684329024418990e+00  -1.0840791150024383e+00  -1.0992961042831533e+00  -1.1140458381110270e+00  -1.1282056160859184e+00  -1.1545848219726895e+00  -1.1665187874342633e+00  -1.1773476655912318e+00  -1.1866429089431352e+00  -1.1949459865684477e+00  -1.2022823392899749e+00  -1.2077002723201165e+00  -1.2114782981225944e+00  -1.2135297500693869e+00  -1.2138290834658221e+00  -1.2122438801285826e+00  -1.2085245011548107e+00  -1.2027523841595793e+00  -1.1946474940437188e+00  -1.1843341503373512e+00  -1.1715762289395080e+00  -1.1565577760259098e+00  -1.1389045637238226e+00  -1.1190190232637756e+00  -1.0965781941924024e+00  -1.0716763925272719e+00  -1.0441656994218764e+00  -1.0136838893483049e+00  -9.8107714647714739e-01  -9.4598820468327960e-01  -9.0808479801203090e-01  -8.6858001835487364e-01  -8.2539390867660822e-01  -7.8045645073086123e-01  -7.3326217407641758e-01  -6.8372860824465720e-01  -6.3177060215236724e-01  -5.7804734649604339e-01  -5.2216165832690076e-01  -4.6413857249891788e-01  -4.0460363663959414e-01  -3.4304832580807004e-01  -2.8034644758171301e-01  -2.1596688840764225e-01  -1.4990902780310386e-01  -8.2801755430245830e-02  -1.4895684905134533e-02  5.4280316134929535e-02  1.2431019256028610e-01  1.9471729126350110e-01  2.6581158703061136e-01  3.3710476688303748e-01  4.0850365956170515e-01  4.8015997704599855e-01  5.5165432047261564e-01  6.2283249250995076e-01  6.9342524120241400e-01  7.6355900069021720e-01  8.3270433846194047e-01  9.0107000275570492e-01  9.6839232024573074e-01  1.0344287145796178e+00  1.0985739954980507e+00  1.1617480076787068e+00  1.2227538561716114e+00  1.2817077522912952e+00  1.3390272356121999e+00  1.3941088829180466e+00  1.4467295731782923e+00  1.4967957720884140e+00  1.5445259226652086e+00  1.5896738703699556e+00  1.6315885554899960e+00  1.6709353151770687e+00  1.7071302855159141e+00  1.7402407220641753e+00  1.7701498658421080e+00  1.7968733228039331e+00  1.8198821983149849e+00  1.8397401095392918e+00  1.8561015076918075e+00  1.8694970163119329e+00  1.8785911186820463e+00  1.8866750747182133e+00  1.8854414559398385e+00  1.8807268401984341e+00  1.8725120407312255e+00  1.8607048722308737e+00  1.8455751207327136e+00  1.8264564163949621e+00  1.8043876542322321e+00  1.7790895989432669e+00  1.7505035127719226e+00  1.7188900962822011e+00  1.6840103680830083e+00  1.6464762340849923e+00  1.6061375758673790e+00  1.5627710716258842e+00  1.5170569166702577e+00  1.4685510130241546e+00  1.4178149449342858e+00  1.3648150073814864e+00  1.3093431429736033e+00  1.2529951112234692e+00  1.1944063807983381e+00  1.1337740257910736e+00  1.0720815568820714e+00  1.0089260578550259e+00  9.4485241035664225e-01  8.7961299554690509e-01  8.1357762635085018e-01  7.4728847954184041e-01  6.8011011648642572e-01  6.1276431922387731e-01  5.4550426383215855e-01  4.7812248470531127e-01  4.1090166560919933e-01  3.4409915014145331e-01  2.7802762790099778e-01  2.1245135691027014e-01  1.4763778549914441e-01  8.3839968197942677e-02  2.1520934331749546e-02  -3.9670873341615107e-02  -9.9619262337645731e-02  -1.5772792696173693e-01  -2.1445581454753215e-01  -2.6949520313061182e-01  -3.2231091268336198e-01  -3.7294709296725514e-01  -4.2191435154811996e-01  -4.6845632614303800e-01  -5.1292229752800023e-01  -5.5484635730069642e-01  -5.9441987356720516e-01  -6.3168863381985518e-01  -6.6640386313755862e-01  -6.9859670913440175e-01  -7.2889189835350821e-01  -7.5533689136512772e-01  -7.8014734766689964e-01  -8.0225793092580866e-01  -8.2193337646429454e-01  -8.3899115381760092e-01  -8.5363249454981605e-01  -8.6625626059347471e-01  -8.7609809879716249e-01  -8.8378541719871018e-01  -8.8920037720687650e-01  -8.9262106948471487e-01  -8.9397750803468734e-01  -8.9342464249468190e-01  -8.9124642232704077e-01  -8.8702478713680877e-01  -8.8141275080031267e-01  -8.7434733732725056e-01  -8.6519727751321907e-01  -8.5656990369731945e-01  -8.4520261814947273e-01  -8.3351653871782139e-01  -8.2102700236325477e-01  4.9465169683432969e-01  2.2665581778027433e-01  8.8689830162517447e-01  7.9987282746729238e-01  3.1104630305342756e-01  -2.4777240907934622e-02  -6.6583807294353048e-01  -4.6187505486981348e-02  -3.6846133852967600e-01  -8.2523871896839340e-01  5.8471608032809441e-01  3.2889035322748485e-02  7.2059420104389693e-01  2.2049687404874890e-01  -2.4338875359190812e-01  1.2344088553839359e+00  1.2254301810697501e+00  -1.4201261238814594e-01  -2.8425048640971418e-01  1.0882104837763071e+00  -3.3397138698071555e-01  -4.4613405740718981e-01  -3.8127889000241677e-01  -5.2403967912636928e-01  -7.6242794029209759e-01  4.3738196805550755e-01  6.3848888220159183e-01  -1.2543081708637787e-02  -4.6183035137007816e-01  1.5627557642924841e+00  -1.0625601582709621e-01  -3.8959707722111664e-01  9.5482913306504658e-01  1.5100219532863361e+00  -4.5830868836232869e-01  1.4815573016109174e+00  -4.4565986308816008e-01  -4.0030222353940598e-01  1.1111562348070265e+00  -6.9147007850485576e-01  -6.9882499901994277e-01  -6.8290203543901706e-01  -6.5526272983678291e-01  -3.9454141818681604e-01  -4.5390348196901675e-01  -8.0098981174390826e-01  4.6113637799947377e-01  -5.2512903224410830e-02  1.5955476691642181e-01  8.7914936901475060e-01  -5.4207790120821930e-01  -6.5646554584183636e-01  1.7377148450182995e+00  1.1959402795351843e+00  6.0272225883832020e-01  -3.9285320028015169e-01  -7.2501977333303658e-01  4.5571019026382587e-01  -9.5222561739448364e-01  -9.1522678649577294e-01  -8.2545866906968879e-01  1.7521062020344187e+00  -5.5916385323488460e-01  -7.5448951453467761e-01  -6.9403247105136201e-01  -4.6766166093669609e-01  -6.4900605473130546e-01  -3.1321931178602430e-01  1.4363304142442286e+00  7.5383437507764794e-01  6.0688921469674051e-01  -4.2524322891040173e-01  -6.7858394219484253e-01  -5.3342558268371232e-01  -4.4432534566374809e-01  -4.6229836000564156e-01  -4.2237264170740457e-01  -4.0741967332201673e-01  -7.3975250008917193e-01  3.6173963912268192e-01  1.6866621265182518e+00  4.6907565501726894e-01  -6.5901417633162063e-01  -6.0352169491077057e-01  -6.3978172100000397e-01  -1.0617702978636547e+00  1.4712686838750424e+00  -5.0769529259010937e-01  6.8294310318374707e-01  1.1344330314978301e+00  -4.9136408572596152e-01  4.6626792429178759e-01  3.7709817327238987e-01  5.6176575054752020e-01  7.4712970841765078e-02  1.0141838613658822e+00  9.1817303713838483e-01  -4.1202116540732259e-01  7.0736529789997760e-01  1.0945839109450597e+00  7.6309018907273884e-01  -1.0458108953837622e+00  -6.3148786013296387e-01  -3.7923685324500023e-01  2.0405473031655477e-01  -1.8951627508098368e-01  -7.6043177309135312e-01  6.0569080931591790e-01  -7.2788560584257178e-01  -5.5361968461701438e-01  9.2966869765839510e-02  3.4096309811380204e-01  8.2503100827179621e-01  -1.7286274641458341e-01  3.7951433884475189e-01  1.8206462554288028e+00  4.2700592289288475e-01  -1.2824174904930755e-01  -4.5323074805722910e-02  -7.0438287774668296e-01  1.6561279571443892e+00  1.2857724976727644e-01  -9.1689750701040040e-01  3.0590963444983871e-01  9.5065432408274020e-01  -1.0216188362488710e+00  -4.0474990634208335e-01  -7.1325313637130494e-01  -3.3147793813143478e-01  1.3945501159589218e+00  7.7291036043676975e-01  -4.2310123484666073e-01  -4.4180948258677588e-01  -8.1143372587381291e-01  1.0021862125507186e+00  -5.0458812007949683e-01  -7.8157726674258865e-01  1.2975451681865255e+00  -6.7074244583526088e-01  -6.0219342608482573e-01  4.8698637074874146e-01  -8.0653225435806908e-01  -7.3918388549735725e-01  1.2153211311843015e+00  9.9783415022644995e-01  -5.5067566140444757e-01  3.7494969079671048e-01  -2.1914925020601428e-01  -1.0027188305808754e+00  -3.5945964719845691e-01  7.3721089868911571e-01  8.0024378007411667e-01  1.5656559419029417e+00  1.8005094508674258e+00  1.2774411659028453e+00  3.2568996983291321e-01  -5.4785978211137322e-02  -4.4699964641788978e-02  3.3500578863537445e-01  -2.1004215443567834e-01  -6.9048919602931169e-01  -6.7793811890623512e-01  -2.1077367630106578e-01  6.0673411311502157e-01  -4.4408707358068189e-01  -4.7178334677263606e-01  -2.2000741183724096e-01  -6.1889538241756337e-01  1.3488579764137236e+00  4.1263537942638678e-01  4.1585910963676548e-01  -1.1399197329028974e+00  1.4277379748125518e+00  -4.1548999224153665e-01  -4.6132733027136757e-01  2.7178676313910843e-01  1.8103753447341349e+00  3.7926457353580673e-01  -1.6240590616925885e-01  1.5816996097621205e+00  -9.8758009043180917e-01  7.2555075424337823e-01  7.2492393205279126e-01  -6.0415624519050393e-01  6.7240770817549078e-01  7.5620199168823932e-01  9.3718819261542308e-01  -4.1970147007741165e-01  -3.4003787743643665e-01  -6.2150370201728622e-01  -2.6074151237823850e-01  4.3981815037296013e-01  9.4896997110874981e-01  -8.8025468448324906e-01  1.1867042835241479e+00  5.2685440237997028e-01  1.5967184236415533e+00  -7.6024646524760742e-01  2.4030258235834076e-01  -1.3037432861080930e-01  1.1631612725963975e-01  -3.3518190712783380e-01  -1.1284622166469629e-01  8.4589905220469130e-01  3.2303725024979868e-01  -4.1035739241182023e-01  -8.4304376544038584e-01  -1.1496789765685478e+00  5.2584855810353481e-01  4.9544875323664384e-01  -4.3109832980038709e-01  -6.9671169334909577e-01  -5.1717748830892440e-01  -6.7109485345591835e-01  2.4432887320688396e-01  1.3372289808382452e+00  -4.0109306200034817e-01  7.4797694420860084e-01  -6.8459590782635624e-02  1.2960899924758300e+00  5.6575299260634726e-01  -6.6721957482740457e-01  -6.4900476971298793e-01  7.0153674787702747e-01  -7.5496410951959103e-01  1.6831613544773927e+00  -7.6162771894277628e-02  -1.1264646388306441e+00  -5.2448962612119288e-01  1.5531836433536523e-03  1.9227310207894097e-01  -4.8195780097299962e-01  1.3669712668378189e-01  9.1979943212362428e-02  1.0759401466467484e+00  9.3934056350634410e-01  1.3917968807731101e-01  6.8156208654984096e-01  8.3503198513071686e-01  1.6067251781127956e-01  1.5265268430155292e+00  1.5315472679190387e-01  1.7223085111843037e+00  5.9696985795980384e-01  -4.1009138563447156e-01  2.3310365628257643e-01  -7.3705164511910359e-01  3.1261116240246550e-01  1.4004391241287402e+00  -5.7937642237624098e-01  1.6200702920812626e+00  1.0845657496690850e+00  1.5227237493243968e-02  -4.4875878625536858e-01  -7.9682989998300469e-01  1.0087242999750234e+00  -6.8191025781223302e-01  -4.0230566460331857e-01  5.1758010599769047e-02  3.8930021238773571e-01  -8.8488381343268044e-02  4.5511395784640807e-02  8.0691280376652885e-01  -5.8827732072411398e-01  6.4516496147025415e-01  7.2574417928746837e-01  -4.7365154658110320e-01  1.8482188041894190e+00  -7.2114534532279040e-01  8.3675613587544351e-01  -7.9296087780757488e-02  -4.8399546719805708e-01  6.7893329575049774e-02  -3.0861934077641501e-01  5.7603230485032120e-01  4.2822037437890953e-01  -2.2566933430659200e-01  -3.9623400822192933e-01  7.5546164315773767e-01  1.1787338272293149e+00  -4.1493231045049339e-01  1.7636543939765306e+00  -1.4425560292875853e-01  -4.0897758824436742e-01  -1.0704872245493530e-01  5.6130372053080990e-01  9.1234845126207531e-01  1.4223114436969948e-02  -4.1175808874150616e-01  9.9445007556088760e-01  4.2776633638752504e-01  3.6538078420466497e-01  5.8910631628825083e-01  1.8871401318140973e-01  -7.0093799679725355e-01  8.6015479714868459e-01  1.0442326114727327e+00  -6.8757596843047297e-01  4.7599750812849345e-01  1.6424577076736320e+00  -4.3207637490759693e-01  -9.7211807944993800e-01  -1.0624749094713797e+00  9.0211998576472852e-01  -7.1213584284283304e-01  1.3508361071723496e+00  4.8506664193278126e-01  -7.1848023453161447e-01  -8.0568787469597292e-01  -1.0903069416709754e+00  -9.2598131988505283e-01  -2.1490013665355029e-01  -7.5121759289246171e-01  -8.1885660681744676e-01  5.8553310526593760e-01  -1.4066206389166677e-01  5.0787993432355065e-02  1.0979425122327242e+00  8.5825226267078947e-01  1.1262877332965422e+00  -9.7917755031304676e-02  1.1327046086997223e+00  1.3855923969746218e+00  3.5934815364592215e-01  3.4944698324734708e-01  4.6576466543311679e-01  6.6828085616683200e-02  -7.0173082409023191e-01  -6.7341326936308787e-01  1.8545272206046488e+00  -2.6433551578725639e-01  -3.9008500636191151e-01  5.9395403605416175e-01  -1.8427995066612121e-01  -1.4080208690590679e-01  -1.39605920