<?xml version="1.0"?>
<VTKFile type="UnstructuredGrid"  version="0.1"  >
<UnstructuredGrid>
<Piece  NumberOfPoints="6146" NumberOfCells="11816">
<Points>
<DataArray  type="Float64"  NumberOfComponents="3"  format="ascii">0 0 0  0 0.41 0  2.2 0 0  2.2 0.41 0  0.2 0.25 0  0.25 0.2 0  0.2 0.15 0  0.15 0.2 0  0 0.4000000000000008 0  0 0.3900000000000259 0  0 0.3800000000000606 0  0 0.3700000000000953 0  0 0.3600000000001082 0  0 0.3500000000001241 0  0 0.3400000000001558 0  0 0.3300000000001905 0  0 0.3200000000002133 0  0 0.3100000000002381 0  0 0.3000000000002728 0  0 0.2900000000003075 0  0 0.2800000000003204 0  0 0.2700000000003551 0  0 0.2600000000003897 0  0 0.2500000000004243 0  0 0.2400000000004419 0  0 0.2300000000004503 0  0 0.2200000000004849 0  0 0.2100000000005195 0  0 0.2000000000005203 0  0 0.1900000000004874 0  0 0.1800000000004544 0  0 0.1700000000004476 0  0 0.1600000000004316 0  0 0.1500000000003986 0  0 0.1400000000003795 0  0 0.1300000000003759 0  0 0.1200000000003428 0  0 0.1100000000003098 0  0 0.1000000000002768 0  0 0.09000000000024383 0  0 0.08000000000021068 0  0 0.07000000000020096 0  0 0.0600000000001879 0  0 0.05000000000015475 0  0 0.04000000000012166 0  0 0.03000000000008857 0  0 0.02000000000005536 0  0 0.01000000000002221 0  0.01007679662828254 0 0  0.02056899213655081 0 0  0.03149370747042262 0 0  0.04286877787651972 0 0  0.05471276293192491 0 0  0.06704499828634325 0 0  0.07988560641938237 0 0  0.09325554633647967 0 0  0.1071766410311884 0 0  0.1216716067611488 0 0  0.1367641016067741 0 0  0.152478764481749 0 0  0.1688412308389146 0 0  0.1858782107385222 0 0  0.2036175120042742 0 0  0.2220880805924512 0 0  0.2413200720246992 0 0  0.2613448680153237 0 0  0.2821951505493904 0 0  0.303904948281349 0 0  0.3265096961752511 0 0  0.350046282509153 0 0  0.3745531279755512 0 0  0.4000702232727447 0 0  0.4266392157867663 0 0  0.4543034693483497 0 0  0.4831081324012234 0 0  0.5131002188568834 0 0  0.54432867931559 0 0  0.5768444722696365 0 0  0.6107006746708104 0 0  0.6459525479050182 0 0  0.682657603414822 0 0  0.7208757746968344 0 0  0.7606694182609572 0 0  0.8021034816821726 0 0  0.8452455957902169 0 0  0.8901661663799046 0 0  0.9369385072466508 0 0  0.9856389585079668 0 0  1.036346998189458 0 0  1.089145397956563 0 0  1.144120312199143 0 0  1.201361473554013 0 0  1.260962300595225 0 0  1.323020078687202 0 0  1.387636074977323 0 0  1.45491573887162 0 0  1.524968897456634 0 0  1.597909863440663 0 0  1.673857723466354 0 0  1.752936382158491 0 0  1.835274909595432 0 0  1.921007725838496 0 0  2.010274709627921 0 0  2.103221572060948 0 0  2.2 0.08199999999981657 0  2.2 0.1639999999995688 0  2.2 0.2459999999995603 0  2.2 0.327999999999785 0  2.103221572061646 0.41 0  2.010274709629372 0.41 0  1.921007725840496 0.41 0  1.835274909597994 0.41 0  1.752936382161568 0.41 0  1.673857723469928 0.41 0  1.597909863444748 0.41 0  1.524968897461176 0.41 0  1.454915738876575 0.41 0  1.387636074982656 0.41 0  1.323020078692824 0.41 0  1.260962300601091 0.41 0  1.201361473560091 0.41 0  1.144120312205409 0.41 0  1.089145397962884 0.41 0  1.036346998195403 0.41 0  0.9856389585135474 0.41 0  0.9369385072518699 0.41 0  0.8901661663847817 0.41 0  0.845245595794772 0.41 0  0.802103481686421 0.41 0  0.760669418264917 0.41 0  0.7208757747005239 0.41 0  0.6826576034182545 0.41 0  0.6459525479082096 0.41 0  0.6107006746737729 0.41 0  0.5768444722723829 0.41 0  0.5443286793181334 0.41 0  0.5131002188592353 0.41 0  0.483108132403395 0.41 0  0.4543034693503529 0.41 0  0.4266392157886099 0.41 0  0.4000702232744378 0.41 0  0.3745531279771039 0.41 0  0.3500462825105728 0.41 0  0.3265096961765468 0.41 0  0.3039049482825278 0.41 0  0.2821951505504596 0.41 0  0.2613448680163102 0.41 0  0.2413200720256172 0.41 0  0.2220880805933043 0.41 0  0.2036175120050649 0.41 0  0.1858782107392414 0.41 0  0.1688412308395617 0.41 0  0.1524787644823298 0.41 0  0.1367641016072927 0.41 0  0.1216716067615997 0.41 0  0.1071766410315749 0.41 0  0.09325554633680744 0.41 0  0.07988560641965403 0.41 0  0.06704499828656418 0.41 0  0.05471276293210092 0.41 0  0.04286877787665544 0.41 0  0.03149370747052016 0.41 0  0.02056899213661323 0.41 0  0.01007679662831285 0.41 0  0.2009941093832422 0.2499901164885035 0  0.2019878257548352 0.2499604698613656 0  0.2029807562584742 0.2499110718390977 0  0.2039725083485626 0.2498419419507366 0  0.2049626899453778 0.2497531075261239 0  0.2059509095900689 0.2496446036851018 0  0.2069367765994233 0.2495164733236293 0  0.2079199012203332 0.2493687670968211 0  0.208899894783849 0.2492015433989262 0  0.209876369858873 0.2490148683402368 0  0.2108489404052936 0.2488088157209575 0  0.2118172219266183 0.248583467002027 0  0.2127808316219855 0.248338911272912 0  0.2137393885375067 0.2480752452163837 0  0.2146925137168532 0.2477925730703012 0  0.2156398303510693 0.247491006586403 0  0.2165809639275547 0.2471706649861239 0  0.2175155423781385 0.2468316749134561 0  0.2184431962261471 0.2464741703848905 0  0.2193635587324768 0.2460982927364335 0  0.2202762660405913 0.2457041905677276 0  0.2211809573203641 0.2452920196833053 0  0.2220772749107273 0.2448619430309942 0  0.2229648644610677 0.2444141306374986 0  0.2238433750713457 0.2439487595411649 0  0.2247124594307593 0.2434660137220228 0  0.2255717739550953 0.2429660840290282 0  0.2264209789225549 0.2424491681046155 0  0.227259738608055 0.2419154703065648 0  0.2280877214159585 0.2413652016272072 0  0.2289046000111568 0.2407985796100187 0  0.2297100514485014 0.2402158282636004 0  0.2305037573004443 0.2396171779731418 0  0.2312854037829426 0.2390028654093291 0  0.2320546818795267 0.2383731334347658 0  0.2328112874634348 0.2377282310079845 0  0.2335549214178666 0.2370684130850081 0  0.2342852897542382 0.2363939405185524 0  0.23500210372839 0.2357050799549172 0  0.2357050799547543 0.2350021037285561 0  0.236393940518396 0.2342852897544042 0  0.2370684130848552 0.2335549214180355 0  0.2377282310078377 0.2328112874636036 0  0.2383731334346237 0.2320546818796969 0  0.2390028654091947 0.2312854037831102 0  0.2396171779730177 0.2305037573006055 0  0.2402158282634863 0.2297100514486559 0  0.2407985796099098 0.2289046000113105 0  0.2413652016271038 0.2280877214161108 0  0.2419154703064672 0.2272597386082051 0  0.2424491681045289 0.2264209789226942 0  0.2429660840289533 0.2255717739552211 0  0.2434660137219522 0.2247124594308835 0  0.2439487595410967 0.2238433750714713 0  0.2444141306374335 0.2229648644611936 0  0.2448619430309386 0.2220772749108404 0  0.2452920196832561 0.2211809573204692 0  0.2457041905676833 0.2202762660406911 0  0.2460982927363924 0.2193635587325747 0  0.246474170384854 0.2184431962262392 0  0.2468316749134214 0.2175155423782314 0  0.2471706649860917 0.216580963927646 0  0.2474910065863757 0.215639830351152 0  0.2477925730702761 0.2146925137169349 0  0.2480752452163603 0.2137393885375889 0  0.2483389112728914 0.2127808316220633 0  0.248583467002012 0.2118172219266803 0  0.2488088157209458 0.2108489404053462 0  0.2490148683402261 0.2098763698589259 0  0.249201543398917 0.2088998947838999 0  0.2493687670968142 0.2079199012203759 0  0.2495164733236233 0.2069367765994661 0  0.2496446036850975 0.205950909590105 0  0.2497531075261207 0.2049626899454101 0  0.2498419419507343 0.2039725083485922 0  0.2499110718390968 0.2029807562584889 0  0.2499604698613655 0.2019878257548365 0  0.2499901164885035 0.2009941093832422 0  0.2499901164885035 0.1990058906167579 0  0.2499604698613656 0.1980121742451648 0  0.2499110718390977 0.1970192437415259 0  0.2498419419507366 0.1960274916514374 0  0.2497531075261239 0.1950373100546222 0  0.2496446036851018 0.1940490904099311 0  0.2495164733236293 0.1930632234005767 0  0.2493687670968211 0.1920800987796668 0  0.2492015433989262 0.191100105216151 0  0.2490148683402368 0.190123630141127 0  0.2488088157209575 0.1891510595947065 0  0.248583467002027 0.1881827780733817 0  0.248338911272912 0.1872191683780146 0  0.2480752452163837 0.1862606114624933 0  0.2477925730703012 0.1853074862831468 0  0.247491006586403 0.1843601696489307 0  0.2471706649861239 0.1834190360724454 0  0.2468316749134561 0.1824844576218615 0  0.2464741703848905 0.181556803773853 0  0.2460982927364335 0.1806364412675232 0  0.2457041905677276 0.1797237339594087 0  0.2452920196833053 0.1788190426796359 0  0.2448619430309942 0.1779227250892727 0  0.2444141306374986 0.1770351355389324 0  0.2439487595411649 0.1761566249286543 0  0.2434660137220228 0.1752875405692407 0  0.2429660840290282 0.1744282260449047 0  0.2424491681046155 0.1735790210774451 0  0.2419154703065648 0.172740261391945 0  0.2413652016272072 0.1719122785840415 0  0.2407985796100187 0.1710953999888432 0  0.2402158282636004 0.1702899485514986 0  0.2396171779731418 0.1694962426995557 0  0.2390028654093291 0.1687145962170574 0  0.2383731334347658 0.1679453181204733 0  0.2377282310079845 0.1671887125365652 0  0.2370684130850081 0.1664450785821334 0  0.2363939405185524 0.1657147102457618 0  0.2357050799549172 0.16499789627161 0  0.2350021037285561 0.1642949200452457 0  0.2342852897544042 0.1636060594816041 0  0.2335549214180355 0.1629315869151449 0  0.2328112874636036 0.1622717689921623 0  0.2320546818796969 0.1616268665653763 0  0.2312854037831102 0.1609971345908053 0  0.2305037573006055 0.1603828220269823 0  0.2297100514486559 0.1597841717365137 0  0.2289046000113105 0.1592014203900902 0  0.2280877214161108 0.1586347983728962 0  0.2272597386082051 0.1580845296935329 0  0.2264209789226942 0.1575508318954712 0  0.2255717739552211 0.1570339159710467 0  0.2247124594308835 0.1565339862780478 0  0.2238433750714713 0.1560512404589033 0  0.2229648644611936 0.1555858693625665 0  0.2220772749108404 0.1551380569690615 0  0.2211809573204692 0.1547079803167439 0  0.2202762660406911 0.1542958094323167 0  0.2193635587325747 0.1539017072636076 0  0.2184431962262392 0.153525829615146 0  0.2175155423782314 0.1531683250865786 0  0.216580963927646 0.1528293350139083 0  0.215639830351152 0.1525089934136243 0  0.2146925137169349 0.1522074269297239 
[...]
<PointData  Scalars="f_19"> 
<DataArray  type="Float64"  Name="f_19"  format="ascii">3.7885223041273652e-01  4.2898828063265104e-01  0.0000000000000000e+00  0.0000000000000000e+00  -8.7807607738737092e-01  -5.2424037717211913e-01  -1.0761738596139108e+00  1.8865747799806065e+00  4.2889667848513607e-01  4.2937511116259175e-01  4.3104182984514677e-01  4.3459092414792383e-01  4.4052289540700940e-01  4.4926652669336348e-01  4.6114566870142948e-01  4.7631757267043195e-01  4.9478770601009298e-01  5.1637574480178483e-01  5.4073370797340015e-01  5.6740068196477289e-01  5.9532139995572475e-01  6.2367280031176042e-01  6.5156702890686147e-01  6.7719941928127048e-01  6.9954410922519861e-01  7.1765715076062764e-01  7.2980387451632911e-01  7.3537873723387892e-01  7.3376458405094869e-01  7.2568272207667561e-01  7.1060008407109942e-01  6.8982976210438451e-01  6.6357750815419148e-01  6.3402234350702258e-01  6.0239310933076340e-01  5.6963475197756530e-01  5.3746513973414001e-01  5.0698016666288681e-01  4.7880242723636895e-01  4.5379488825132441e-01  4.3252940525125194e-01  4.1499178544684373e-01  4.0137641454220646e-01  3.9146666533493923e-01  3.8473242294108267e-01  3.8090689839433139e-01  3.7908569021748234e-01  3.7877779249459836e-01  3.7836881238738745e-01  3.7775135346118560e-01  3.7667876261741545e-01  3.7482910837292910e-01  3.7195824138669492e-01  3.6740384188062547e-01  3.6078726994861077e-01  3.5097309150333172e-01  3.3790489270282881e-01  3.1883893068111474e-01  2.9409140972222747e-01  2.6172714253404800e-01  2.2266955812429384e-01  1.7678095593311421e-01  1.2493592677082616e-01  7.0720099898819971e-02  1.8379613417741206e-02  -2.9713183922370143e-02  -7.2992703156853730e-02  -1.0067937195783243e-01  -1.2181416684357055e-01  -1.2558346897217945e-01  -1.2252250749045585e-01  -9.9310831522222184e-02  -5.9487515772773669e-02  1.2705512027116725e-03  8.3074127655973620e-02  1.7278597271365351e-01  2.4998311225064451e-01  3.0364603930586953e-01  2.9640287167035989e-01  2.4667334760718529e-01  1.5715905370211961e-01  8.6435519959501037e-02  5.3662729995304151e-02  3.9838546809479770e-02  3.3175382866436065e-02  6.5963453489711291e-02  1.4462737724061664e-01  1.9304846373753373e-01  1.8009015537106815e-01  1.3869759528539929e-01  7.9569948613644845e-02  9.3137961338959699e-03  -5.8999831488085540e-02  -6.2012268441754836e-02  7.1967107162292571e-02  1.8800390412733362e-01  3.0990205942779903e-02  -4.5948167616538603e-02  -1.0170489660398724e-01  -1.1298023167094717e-01  -9.1907703342844288e-02  -2.8337812906880616e-02  4.0039132983577235e-03  1.3421253999443189e-02  0.0000000000000000e+00  0.0000000000000000e+00  0.0000000000000000e+00  0.0000000000000000e+00  -1.6024293395556867e-02  -3.8614344652414256e-02  -6.6046179643037078e-02  -5.1237201456940579e-02  1.1310191910374559e-02  5.9788607366643692e-03  -7.6081992468956777e-02  -1.0195252357446892e-01  -6.1835690664817235e-02  7.8078852868378795e-03  6.5041542424363080e-02  1.5170123181936171e-01  1.8171916013913403e-01  1.0292366624447592e-01  1.2236613888485532e-03  -3.8959788868568627e-03  5.3723284372095434e-02  1.0776926668444056e-01  1.5954439737297113e-01  2.0055520341297911e-01  2.3324480261731875e-01  2.3002400637620168e-01  1.7829626831764084e-01  1.1277500267606319e-01  3.6833031777018056e-02  -3.2888217075050005e-02  -5.9330350822603677e-02  -5.0513773916749459e-02  -1.8084152449279328e-02  2.1443245771969488e-02  4.8947274640871369e-02  6.4448446137221796e-02  7.1709427961207453e-02  7.2710871637014951e-02  7.3205354459298849e-02  7.8178856665034643e-02  8.6819027252297551e-02  1.0608577782839813e-01  1.3114531987109401e-01  1.6343465034071000e-01  1.9804708574974331e-01  2.3565615852627275e-01  2.7095876545959535e-01  3.0384250212002561e-01  3.3182495881347923e-01  3.5558853895387738e-01  3.7460234035027951e-01  3.8974979817886030e-01  4.0098276850268955e-01  4.0970101912979712e-01  4.1615951465569201e-01  4.2078382160381173e-01  4.2407496439833331e-01  4.2626970417426141e-01  4.2763467693569451e-01  4.2843658785094257e-01  -8.6542712863233762e-01  -8.5244266285440817e-01  -8.3903691423084192e-01  -8.2530717407514409e-01  -8.1125330465266587e-01  -7.9723715046529697e-01  -7.8288830221632899e-01  -7.6867986976678182e-01  -7.5460032578680114e-01  -7.4026021808152331e-01  -7.2712055523032204e-01  -7.1335193502635197e-01  -7.0022820112984474e-01  -6.8759524181472054e-01  -6.7535472690941356e-01  -6.6331117853670596e-01  -6.5199535756517069e-01  -6.4095776803569893e-01  -6.3048947531889621e-01  -6.2045512345041032e-01  -6.1099099223702757e-01  -6.0190050924947658e-01  -5.9331399555301623e-01  -5.8516404205985284e-01  -5.7746081997892640e-01  -5.7020321208138514e-01  -5.6333259356751264e-01  -5.5687000758324068e-01  -5.5073290827662480e-01  -5.4493716305778628e-01  -5.3940955061007789e-01  -5.3418349120175368e-01  -5.2918829297662184e-01  -5.2444955968558993e-01  -5.1989526482301562e-01  -5.1555170895733637e-01  -5.1138717897054997e-01  -5.0736946779370817e-01  -5.0353684454553904e-01  -4.9984676504141129e-01  -4.9632660976263770e-01  -4.9294032362644247e-01  -4.8972804831509620e-01  -4.8666183214554160e-01  -4.8378919311977975e-01  -4.8108231055243966e-01  -4.7856970020100187e-01  -4.7623484460285848e-01  -4.7410798244009916e-01  -4.7218619275587798e-01  -4.7050220234166962e-01  -4.6903133564932581e-01  -4.6780198989589789e-01  -4.6681078073777521e-01  -4.6607703250640298e-01  -4.6559900880541127e-01  -4.6538960679808850e-01  -4.6544475324063345e-01  -4.6575746874823765e-01  -4.6633736714062068e-01  -4.6719533176492700e-01  -4.6832549336460538e-01  -4.6971070564010287e-01  -4.7142744045812685e-01  -4.7341095145206041e-01  -4.7565257051759641e-01  -4.7813903560452492e-01  -4.8086624613267270e-01  -4.8378959351495010e-01  -4.8704137703433931e-01  -4.9049762809724812e-01  -4.9417767190663919e-01  -4.9801611882122893e-01  -5.0210886538343957e-01  -5.0626950889116951e-01  -5.1058351804362501e-01  -5.1507302944114297e-01  -5.1962252911664986e-01  -5.2889379304701523e-01  -5.3356137110084301e-01  -5.3825960353450930e-01  -5.4291103223255166e-01  -5.4747747906047273e-01  -5.5199419643498127e-01  -5.5638580104312318e-01  -5.6064090548495149e-01  -5.6477917500283625e-01  -5.6871831318732069e-01  -5.7249152397961456e-01  -5.7604582144488004e-01  -5.7941773013600739e-01  -5.8254754254493213e-01  -5.8546159792992203e-01  -5.8816173741997646e-01  -5.9061934258175131e-01  -5.9287952325315163e-01  -5.9490012413438509e-01  -5.9673096812842930e-01  -5.9835052381765008e-01  -5.9979478045804180e-01  -6.0105662425896800e-01  -6.0216883647908370e-01  -6.0317786277507468e-01  -6.0406839980948068e-01  -6.0489703178148579e-01  -6.0565740693804149e-01  -6.0638969472397652e-01  -6.0713659858345825e-01  -6.0793783212450014e-01  -6.0882305966033090e-01  -6.0979192348302236e-01  -6.1093472489276623e-01  -6.1226941817149549e-01  -6.1383139667514797e-01  -6.1566276570108736e-01  -6.1778127654266790e-01  -6.2024663633566524e-01  -6.2306135549154451e-01  -6.2627344892370096e-01  -6.2990521347208472e-01  -6.3395714698963923e-01  -6.3845016824985679e-01  -6.4343030244559252e-01  -6.4886983699286038e-01  -6.5480932341422005e-01  -6.6119502974165267e-01  -6.6812134648587718e-01  -6.7553189851613815e-01  -6.8337225938824586e-01  -6.9171678026676298e-01  -7.0073367394652752e-01  -7.1014423458783493e-01  -7.1996953133516040e-01  -7.3044296911168394e-01  -7.4150232954080009e-01  -7.5298705589615322e-01  -7.6488818625620214e-01  -7.7749643642668154e-01  -7.9055635900458832e-01  -8.0417028412106240e-01  -8.1842355152535184e-01  -8.3297757425968966e-01  -8.4784567969738056e-01  -8.6334971632527879e-01  -8.7933085534322075e-01  -8.9545635946053592e-01  -9.1203494879489921e-01  -9.2872452324103660e-01  -9.4561249574340955e-01  -9.6248955338408793e-01  -9.7950336601134580e-01  -9.9646408883500304e-01  -1.0132364105236253e+00  -1.0296471073690985e+00  -1.0456681703267594e+00  -1.0611667038728807e+00  -1.0904402157228972e+00  -1.1039271712694172e+00  -1.1163679097693633e+00  -1.1273420827152483e+00  -1.1373869600971045e+00  -1.1465218506907033e+00  -1.1537861693429965e+00  -1.1594648900352698e+00  -1.1634544075993494e+00  -1.1657387711886635e+00  -1.1661658567225248e+00  -1.1644919758246470e+00  -1.1607823127380301e+00  -1.1547653599465362e+00  -1.1465438537719526e+00  -1.1358920194885489e+00  -1.1229734032787124e+00  -1.1074178220146635e+00  -1.0896218479502802e+00  -1.0692565855297722e+00  -1.0464088439557342e+00  -1.0209232743358911e+00  -9.9243594428359283e-01  -9.6179300767761566e-01  -9.2862398227019549e-01  -8.9259913474656094e-01  -8.5494072420561740e-01  -8.1352730110724270e-01  -7.7032325528485512e-01  -7.2480602573374342e-01  -6.7688289416729852e-01  -6.2647922844333281e-01  -5.7424171853741779e-01  -5.1978632444565753e-01  -4.6311404514630922e-01  -4.0486088338199500e-01  -3.4452307409523930e-01  -2.8297146138482132e-01  -2.1966366649132849e-01  -1.5459891155478026e-01  -8.8420832580498696e-02  -2.1369224042511282e-02  4.7036576442769255e-02  1.1635878901044384e-01  1.8613143881854441e-01  2.5666310246842999e-01  3.2745525616729704e-01  3.9843362116432995e-01  4.6974591357111151e-01  5.4095891732633161e-01  6.1191920928591870e-01  6.8236344601433541e-01  7.5241170563157256e-01  8.2153316826094869e-01  8.8993784187259173e-01  9.5734956273417415e-01  1.0235326331971941e+00  1.0878913179400427e+00  1.1513308183855884e+00  1.2126496458713656e+00  1.2719715937098059e+00  1.3297002573088712e+00  1.3852323768933981e+00  1.4383503757203591e+00  1.4889533406112587e+00  1.5372554022357328e+00  1.5830065808664382e+00  1.6255607045580103e+00  1.6655778371989032e+00  1.7024649061067751e+00  1.7362961038424871e+00  1.7669441845810090e+00  1.7944268077786347e+00  1.8182125401856943e+00  1.8388631556462738e+00  1.8560215125109807e+00  1.8702260083122815e+00  1.8801352197851591e+00  1.8898476962658284e+00  1.8894222851650002e+00  1.8855149954571255e+00  1.8780933416494203e+00  1.8670718952523393e+00  1.8527079848514494e+00  1.8343369665076512e+00  1.8130000009009097e+00  1.7884078668919396e+00  1.7605039854182103e+00  1.7295428406515958e+00  1.6952824003920595e+00  1.6583373861982780e+00  1.6185471656051948e+00  1.5756922075519930e+00  1.5304436527028191e+00  1.4823572362386945e+00  1.4319988279855709e+00  1.3793237666557407e+00  1.3241087081716192e+00  1.2679879798298261e+00  1.2095684993448437e+00  1.1490309859646628e+00  1.0873736663816280e+00  1.0241940482189806e+00  9.6002837120438378e-01  8.9462849145875523e-01  8.2836928834882351e-01  7.6179271290505823e-01  6.9422776849020063e-01  6.2644304095223180e-01  5.5866307253744907e-01  4.9067978665344714e-01  4.2278421427742363e-01  3.5523192268916393e-01  2.8832407952315836e-01  2.2182989457297217e-01  1.5602747216381227e-01  9.1158046798443484e-02  2.7685455089807423e-02  -3.4741465007139906e-02  -9.6001383275663599e-02  -1.5550153825518748e-01  -2.1369919657020317e-01  -2.7027461875533626e-01  -3.2470703004098039e-01  -3.7703860608359452e-01  -4.2776635713840855e-01  -4.7613182707485902e-01  -5.2249234675452338e-01  -5.6636661281693479e-01  -6.0795393715890111e-01  -6.4728603409050511e-01  -6.8411446801186315e-01  -7.1846636035876799e-01  -7.5094937410040330e-01  -7.7963802193807663e-01  -8.0670887505382560e-01  -8.3110201807483064e-01  -8.5308479471504406e-01  -8.7245502669568931e-01  -8.8942061917526138e-01  -9.0436315586075344e-01  -9.1651466365111112e-01  -9.2650398238413212e-01  -9.3419511950895273e-01  -9.3987230262755272e-01  -9.4344331798477921e-01  -9.4507271007321225e-01  -9.4502590781224793e-01  -9.4288310611899884e-01  -9.3930072215897864e-01  -9.3419927416046344e-01  -9.2694446790894136e-01  -9.2014642523695278e-01  -9.1053140011605560e-01  -9.0052675891402090e-01  -8.8963246101199522e-01  4.8293801854039570e-01  1.9800390054187064e-01  8.8578504903011612e-01  8.0818688627162460e-01  3.3579954538196100e-01  -4.8287480689549259e-02  -1.3705610391427248e-01  -2.9349428680708347e-03  -3.3904602238076065e-01  -1.0299550141764162e+00  5.9888615165480219e-01  6.2581266989706605e-02  7.1314118425514972e-01  1.9790257136806214e-01  -2.2449357856384944e-01  1.2377968759128846e+00  1.2264829274440199e+00  -1.8505719155859640e-01  -3.4717076143400777e-01  1.0935470068199380e+00  -4.3754644635163847e-01  -4.9980739747772734e-01  -3.3473285402381708e-01  -4.5684084900345018e-01  -6.4344571324278799e-01  4.2846905306952626e-01  6.4482702518991519e-01  4.6938443181618736e-03  -4.2723413283767581e-01  1.5660255930778351e+00  -1.2807657221037247e-01  -4.3204831053727044e-01  9.5653164541070790e-01  1.5111154043005728e+00  -5.2118893168972891e-01  1.4873469504952856e+00  -5.2665252941638951e-01  -4.9372672792800992e-01  1.1106785123067096e+00  -6.2622642377341398e-01  -6.1459775260935234e-01  -5.8150678050539251e-01  -6.2082343109790594e-01  -4.7230655838433122e-01  -4.9298224042604788e-01  -7.4948597181662990e-01  4.6204581465084960e-01  -6.0105952126486305e-02  1.6282997543658012e-01  8.8260840398563489e-01  -5.4722570038186180e-01  -5.9160571360697389e-01  1.7397995881663331e+00  1.2051594688749538e+00  5.9985463676683193e-01  -3.8174632259407093e-01  -6.9953821969330698e-01  4.7081277695451312e-01  -9.1115125702009492e-01  -8.4754970536156671e-01  -7.4761294816837776e-01  1.7578123882207766e+00  -5.9356208601523941e-01  -6.7282519837500698e-01  -6.0805648816637070e-01  -4.8834757921445393e-01  -7.1015192827137053e-01  -7.7949206447776448e-03  1.4327903269860980e+00  7.6251209816737209e-01  6.0154089545731981e-01  -4.7507801752201939e-01  -5.9759947648625200e-01  -6.1381128267829332e-01  -5.3026949026384551e-01  -4.9331922489579783e-01  -5.0807717608361280e-01  -4.8582015913444193e-01  -7.9011070530458283e-01  2.4693952587409437e-01  1.6849679779761422e+00  4.5958973460719721e-01  -5.9452530717350527e-01  -5.7672342386915498e-01  -7.1509527504941517e-01  -1.0065547381572355e+00  1.4818193587882866e+00  -5.2284106558947274e-01  6.7684480293552485e-01  1.1274002330011026e+00  -5.7583959072199542e-01  4.5126034903009499e-01  3.5728395337852242e-01  5.7576999219144276e-01  7.6529870687086332e-02  1.0205577810148172e+00  9.1527005586949384e-01  -4.7472050602184795e-01  7.1459778228255844e-01  1.0953675176153972e+00  7.6334653170834776e-01  -9.7997261934873647e-01  -5.8847025452478219e-01  -6.1987322152167040e-02  1.9980937794111706e-01  -1.8887550326854238e-01  -7.4365202329285784e-01  6.1655085667564380e-01  -6.4505330855195753e-01  -5.5190466480840106e-01  6.0226530185827479e-02  3.6281075264713769e-01  8.3478341735011130e-01  -1.2898862884020065e-01  3.8757328422792736e-01  1.8241553583787447e+00  4.1304648934647287e-01  -2.4393283157463808e-01  1.4416546102370951e-02  -6.2160019453496596e-01  1.6657486162370052e+00  1.6353627910340612e-01  -8.4066986514892250e-01  3.2601730367141674e-01  9.4802630083810879e-01  -9.8850761753177707e-01  -4.1528207534874506e-01  -7.4413640137526671e-01  -2.7858745476241292e-01  1.3978118613276751e+00  7.6499680235330114e-01  -4.7231542517592934e-01  -4.7920408390736036e-01  -7.3060704155219636e-01  1.0148147351342813e+00  -4.9876677752475629e-01  -8.4427706793900892e-01  1.2996191897798077e+00  -5.7230847607748103e-01  -6.8314823919969636e-01  4.7355512527030119e-01  -8.4924535063877271e-01  -8.1026836942070712e-01  1.2188928955896210e+00  1.0022231219132651e+00  -6.3416438919169282e-01  3.9259221917380893e-01  -2.6453859921327327e-02  -9.2991701439886409e-01  -4.3448802296473477e-01  7.3217613385091562e-01  8.0942893713042929e-01  1.5602446151990867e+00  1.8005272322227321e+00  1.2906667423093903e+00  3.0348843037056106e-01  -9.8760940517485171e-02  -7.5424988525488387e-02  3.4692677333184863e-01  -2.6151185576738212e-01  -6.1050772329905101e-01  -6.0417176937261874e-01  -2.5321273078256484e-01  5.9710825549023250e-01  -5.2977965240836777e-01  -5.5733928776763586e-01  -2.2234260048257912e-01  -6.8064706826225019e-01  1.3412653779854182e+00  4.3242603222605669e-01  4.3432317132804904e-01  -1.0898738150784251e+00  1.4307866643739433e+00  -4.9603698980487515e-01  -4.9036083208732867e-01  3.0147795625278517e-01  1.8165963694400957e+00  3.7116488387626334e-01  -1.2472096681223992e-01  1.5841638669935467e+00  -9.6366570572616328e-01  7.2239668827380898e-01  7.3772760567401685e-01  -5.7893623927318816e-01  6.6973142832286237e-01  7.6020035750780512e-01  9.4218218901958284e-01  -3.9269501538236917e-01  -4.5306957949040838e-01  -6.4040882375134478e-01  -2.3539637334887584e-01  4.2891322942144849e-01  9.5052440005914340e-01  -8.0102361484203177e-01  1.1915957046222221e+00  5.1848693871501028e-01  1.6013132060694626e+00  -6.7773488765669354e-01  2.2281800533119775e-01  -4.5220188570350690e-04  8.5017561281826207e-02  -4.2138062735015608e-01  -3.4838047089388355e-02  8.5190374151686510e-01  2.9778010488566287e-01  -4.7889619851733495e-01  -8.9502050404999889e-01  -1.1073367976642619e+00  5.1876722927876495e-01  5.0848816646935446e-01  -5.1589240920612645e-01  -7.7306364340371403e-01  -6.0195505059581222e-01  -6.1421425093323878e-01  2.7048691603001174e-01  1.3375813876087035e+00  -4.5189643480678715e-01  7.4179715913747302e-01  -1.0867156323962446e-01  1.2994271491811664e+00  5.7796061818528066e-01  -6.0166852838256601e-01  -5.9628732278475138e-01  7.1271167786804068e-01  -7.4315384248662575e-01  1.6869448836101921e+00  -8.0327740820405003e-02  -1.0652060332389037e+00  -5.3392752285655243e-01  1.8423351238190187e-02  -1.8512904028379115e-02  -5.0422825244867042e-01  1.7523981136178943e-01  9.7752280090275381e-02  1.0785015657812094e+00  9.2942996832409364e-01  1.1828057320055353e-01  6.7927995004184683e-01  8.3696220026863999e-01  2.9293143884787776e-01  1.5387782632671803e+00  1.3946879087030836e-01  1.7193088589093046e+00  6.0701033735664500e-01  -4.9733208877427526e-01  2.0571637796155628e-01  -6.5849596719659964e-01  3.0662400021145925e-01  1.4033406950697014e+00  -5.6748065568745931e-01  1.6270006204107104e+00  1.0840497655349934e+00  5.6565520050429412e-02  -5.2022653427942278e-01  -7.1501849981684296e-01  1.0157248151156457e+00  -5.8360942553812267e-01  -4.6623229154451434e-01  5.3348237641737441e-02  3.6992424436634258e-01  -2.9106849120929472e-02  6.9275714714076841e-02  8.0339814671610965e-01  -5.9087997143456472e-01  6.5830498519911196e-01  7.3392629000876208e-01  -4.3076367188679371e-01  1.8502392699514187e+00  -6.3786189156370054e-01  8.3710973444446235e-01  -6.1642484244285770e-02  -4.6557510584655670e-01  3.2345024672149725e-02  -4.3552729893048342e-02  5.6729701557871171e-01  4.1203039271003106e-01  -2.5662084008615871e-01  -3.9511732832371488e-01  7.5834807216402389e-01  1.1693341218862947e+00  -4.7135652490007202e-01  1.7722393170786830e+00  -1.1887574570375095e-01  -4.1615019886164201e-01  -6.5151198793836365e-02  5.5136888355835878e-01  9.1877394260461298e-01  2.5067726484473005e-02  -4.8733479464327850e-01  1.0003051836398407e+00  4.1474776186645379e-01  3.4670834486779606e-01  5.7930253183055802e-01  1.8135282832936822e-01  -7.5199009211414980e-01  8.6868533939361003e-01  1.0441998967714181e+00  -6.4541998023636549e-01  4.8747490985687969e-01  1.6432294258949016e+00  -4.7292115538015767e-01  -8.9626349297308083e-01  -9.9252029677451803e-01  8.9963377910209286e-01  -6.2806720040373776e-01  1.3541132357666807e+00  4.8820447021444269e-01  -6.1557108879876277e-01  -7.3948565006830769e-01  -1.0596910581734273e+00  -9.0736856348059236e-01  -2.3243390950127671e-01  -7.7891537545681011e-01  -8.5580326695924713e-01  5.7455469658592595e-01  -1.5651425990759954e-01  8.5421003833399567e-02  1.1123538407774622e+00  8.5370936558148003e-01  1.1291409207331702e+00  -9.5455911474632935e-02  1.1374286815224024e+00  1.3932561134353783e+00  3.7801959373000926e-01  3.6964798618320910e-01  4.5455584142094652e-01  -3.1229638463765780e-02  -6.1972484642380443e-01  -5.8772727239886047e-01  1.8587928011712627e+00  -3.1516483410042673e-01  -4.8234291197328705e-01  5.8901916616263417e-01  -1.5239967267154411e-01  -8.8813947076037930e-02  -1.77502647405980