<?xml version="1.0"?>
<VTKFile type="UnstructuredGrid"  version="0.1"  >
<UnstructuredGrid>
<Piece  NumberOfPoints="6146" NumberOfCells="11816">
<Points>
<DataArray  type="Float64"  NumberOfComponents="3"  format="ascii">0 0 0  0 0.41 0  2.2 0 0  2.2 0.41 0  0.2 0.25 0  0.25 0.2 0  0.2 0.15 0  0.15 0.2 0  0 0.4000000000000008 0  0 0.3900000000000259 0  0 0.3800000000000606 0  0 0.3700000000000953 0  0 0.3600000000001082 0  0 0.3500000000001241 0  0 0.3400000000001558 0  0 0.3300000000001905 0  0 0.3200000000002133 0  0 0.3100000000002381 0  0 0.3000000000002728 0  0 0.2900000000003075 0  0 0.2800000000003204 0  0 0.2700000000003551 0  0 0.2600000000003897 0  0 0.2500000000004243 0  0 0.2400000000004419 0  0 0.2300000000004503 0  0 0.2200000000004849 0  0 0.2100000000005195 0  0 0.2000000000005203 0  0 0.1900000000004874 0  0 0.1800000000004544 0  0 0.1700000000004476 0  0 0.1600000000004316 0  0 0.1500000000003986 0  0 0.1400000000003795 0  0 0.1300000000003759 0  0 0.1200000000003428 0  0 0.1100000000003098 0  0 0.1000000000002768 0  0 0.09000000000024383 0  0 0.08000000000021068 0  0 0.07000000000020096 0  0 0.0600000000001879 0  0 0.05000000000015475 0  0 0.04000000000012166 0  0 0.03000000000008857 0  0 0.02000000000005536 0  0 0.01000000000002221 0  0.01007679662828254 0 0  0.02056899213655081 0 0  0.03149370747042262 0 0  0.04286877787651972 0 0  0.05471276293192491 0 0  0.06704499828634325 0 0  0.07988560641938237 0 0  0.09325554633647967 0 0  0.1071766410311884 0 0  0.1216716067611488 0 0  0.1367641016067741 0 0  0.152478764481749 0 0  0.1688412308389146 0 0  0.1858782107385222 0 0  0.2036175120042742 0 0  0.2220880805924512 0 0  0.2413200720246992 0 0  0.2613448680153237 0 0  0.2821951505493904 0 0  0.303904948281349 0 0  0.3265096961752511 0 0  0.350046282509153 0 0  0.3745531279755512 0 0  0.4000702232727447 0 0  0.4266392157867663 0 0  0.4543034693483497 0 0  0.4831081324012234 0 0  0.5131002188568834 0 0  0.54432867931559 0 0  0.5768444722696365 0 0  0.6107006746708104 0 0  0.6459525479050182 0 0  0.682657603414822 0 0  0.7208757746968344 0 0  0.7606694182609572 0 0  0.8021034816821726 0 0  0.8452455957902169 0 0  0.8901661663799046 0 0  0.9369385072466508 0 0  0.9856389585079668 0 0  1.036346998189458 0 0  1.089145397956563 0 0  1.144120312199143 0 0  1.201361473554013 0 0  1.260962300595225 0 0  1.323020078687202 0 0  1.387636074977323 0 0  1.45491573887162 0 0  1.524968897456634 0 0  1.597909863440663 0 0  1.673857723466354 0 0  1.752936382158491 0 0  1.835274909595432 0 0  1.921007725838496 0 0  2.010274709627921 0 0  2.103221572060948 0 0  2.2 0.08199999999981657 0  2.2 0.1639999999995688 0  2.2 0.2459999999995603 0  2.2 0.327999999999785 0  2.103221572061646 0.41 0  2.010274709629372 0.41 0  1.921007725840496 0.41 0  1.835274909597994 0.41 0  1.752936382161568 0.41 0  1.673857723469928 0.41 0  1.597909863444748 0.41 0  1.524968897461176 0.41 0  1.454915738876575 0.41 0  1.387636074982656 0.41 0  1.323020078692824 0.41 0  1.260962300601091 0.41 0  1.201361473560091 0.41 0  1.144120312205409 0.41 0  1.089145397962884 0.41 0  1.036346998195403 0.41 0  0.9856389585135474 0.41 0  0.9369385072518699 0.41 0  0.8901661663847817 0.41 0  0.845245595794772 0.41 0  0.802103481686421 0.41 0  0.760669418264917 0.41 0  0.7208757747005239 0.41 0  0.6826576034182545 0.41 0  0.6459525479082096 0.41 0  0.6107006746737729 0.41 0  0.5768444722723829 0.41 0  0.5443286793181334 0.41 0  0.5131002188592353 0.41 0  0.483108132403395 0.41 0  0.4543034693503529 0.41 0  0.4266392157886099 0.41 0  0.4000702232744378 0.41 0  0.3745531279771039 0.41 0  0.3500462825105728 0.41 0  0.3265096961765468 0.41 0  0.3039049482825278 0.41 0  0.2821951505504596 0.41 0  0.2613448680163102 0.41 0  0.2413200720256172 0.41 0  0.2220880805933043 0.41 0  0.2036175120050649 0.41 0  0.1858782107392414 0.41 0  0.1688412308395617 0.41 0  0.1524787644823298 0.41 0  0.1367641016072927 0.41 0  0.1216716067615997 0.41 0  0.1071766410315749 0.41 0  0.09325554633680744 0.41 0  0.07988560641965403 0.41 0  0.06704499828656418 0.41 0  0.05471276293210092 0.41 0  0.04286877787665544 0.41 0  0.03149370747052016 0.41 0  0.02056899213661323 0.41 0  0.01007679662831285 0.41 0  0.2009941093832422 0.2499901164885035 0  0.2019878257548352 0.2499604698613656 0  0.2029807562584742 0.2499110718390977 0  0.2039725083485626 0.2498419419507366 0  0.2049626899453778 0.2497531075261239 0  0.2059509095900689 0.2496446036851018 0  0.2069367765994233 0.2495164733236293 0  0.2079199012203332 0.2493687670968211 0  0.208899894783849 0.2492015433989262 0  0.209876369858873 0.2490148683402368 0  0.2108489404052936 0.2488088157209575 0  0.2118172219266183 0.248583467002027 0  0.2127808316219855 0.248338911272912 0  0.2137393885375067 0.2480752452163837 0  0.2146925137168532 0.2477925730703012 0  0.2156398303510693 0.247491006586403 0  0.2165809639275547 0.2471706649861239 0  0.2175155423781385 0.2468316749134561 0  0.2184431962261471 0.2464741703848905 0  0.2193635587324768 0.2460982927364335 0  0.2202762660405913 0.2457041905677276 0  0.2211809573203641 0.2452920196833053 0  0.2220772749107273 0.2448619430309942 0  0.2229648644610677 0.2444141306374986 0  0.2238433750713457 0.2439487595411649 0  0.2247124594307593 0.2434660137220228 0  0.2255717739550953 0.2429660840290282 0  0.2264209789225549 0.2424491681046155 0  0.227259738608055 0.2419154703065648 0  0.2280877214159585 0.2413652016272072 0  0.2289046000111568 0.2407985796100187 0  0.2297100514485014 0.2402158282636004 0  0.2305037573004443 0.2396171779731418 0  0.2312854037829426 0.2390028654093291 0  0.2320546818795267 0.2383731334347658 0  0.2328112874634348 0.2377282310079845 0  0.2335549214178666 0.2370684130850081 0  0.2342852897542382 0.2363939405185524 0  0.23500210372839 0.2357050799549172 0  0.2357050799547543 0.2350021037285561 0  0.236393940518396 0.2342852897544042 0  0.2370684130848552 0.2335549214180355 0  0.2377282310078377 0.2328112874636036 0  0.2383731334346237 0.2320546818796969 0  0.2390028654091947 0.2312854037831102 0  0.2396171779730177 0.2305037573006055 0  0.2402158282634863 0.2297100514486559 0  0.2407985796099098 0.2289046000113105 0  0.2413652016271038 0.2280877214161108 0  0.2419154703064672 0.2272597386082051 0  0.2424491681045289 0.2264209789226942 0  0.2429660840289533 0.2255717739552211 0  0.2434660137219522 0.2247124594308835 0  0.2439487595410967 0.2238433750714713 0  0.2444141306374335 0.2229648644611936 0  0.2448619430309386 0.2220772749108404 0  0.2452920196832561 0.2211809573204692 0  0.2457041905676833 0.2202762660406911 0  0.2460982927363924 0.2193635587325747 0  0.246474170384854 0.2184431962262392 0  0.2468316749134214 0.2175155423782314 0  0.2471706649860917 0.216580963927646 0  0.2474910065863757 0.215639830351152 0  0.2477925730702761 0.2146925137169349 0  0.2480752452163603 0.2137393885375889 0  0.2483389112728914 0.2127808316220633 0  0.248583467002012 0.2118172219266803 0  0.2488088157209458 0.2108489404053462 0  0.2490148683402261 0.2098763698589259 0  0.249201543398917 0.2088998947838999 0  0.2493687670968142 0.2079199012203759 0  0.2495164733236233 0.2069367765994661 0  0.2496446036850975 0.205950909590105 0  0.2497531075261207 0.2049626899454101 0  0.2498419419507343 0.2039725083485922 0  0.2499110718390968 0.2029807562584889 0  0.2499604698613655 0.2019878257548365 0  0.2499901164885035 0.2009941093832422 0  0.2499901164885035 0.1990058906167579 0  0.2499604698613656 0.1980121742451648 0  0.2499110718390977 0.1970192437415259 0  0.2498419419507366 0.1960274916514374 0  0.2497531075261239 0.1950373100546222 0  0.2496446036851018 0.1940490904099311 0  0.2495164733236293 0.1930632234005767 0  0.2493687670968211 0.1920800987796668 0  0.2492015433989262 0.191100105216151 0  0.2490148683402368 0.190123630141127 0  0.2488088157209575 0.1891510595947065 0  0.248583467002027 0.1881827780733817 0  0.248338911272912 0.1872191683780146 0  0.2480752452163837 0.1862606114624933 0  0.2477925730703012 0.1853074862831468 0  0.247491006586403 0.1843601696489307 0  0.2471706649861239 0.1834190360724454 0  0.2468316749134561 0.1824844576218615 0  0.2464741703848905 0.181556803773853 0  0.2460982927364335 0.1806364412675232 0  0.2457041905677276 0.1797237339594087 0  0.2452920196833053 0.1788190426796359 0  0.2448619430309942 0.1779227250892727 0  0.2444141306374986 0.1770351355389324 0  0.2439487595411649 0.1761566249286543 0  0.2434660137220228 0.1752875405692407 0  0.2429660840290282 0.1744282260449047 0  0.2424491681046155 0.1735790210774451 0  0.2419154703065648 0.172740261391945 0  0.2413652016272072 0.1719122785840415 0  0.2407985796100187 0.1710953999888432 0  0.2402158282636004 0.1702899485514986 0  0.2396171779731418 0.1694962426995557 0  0.2390028654093291 0.1687145962170574 0  0.2383731334347658 0.1679453181204733 0  0.2377282310079845 0.1671887125365652 0  0.2370684130850081 0.1664450785821334 0  0.2363939405185524 0.1657147102457618 0  0.2357050799549172 0.16499789627161 0  0.2350021037285561 0.1642949200452457 0  0.2342852897544042 0.1636060594816041 0  0.2335549214180355 0.1629315869151449 0  0.2328112874636036 0.1622717689921623 0  0.2320546818796969 0.1616268665653763 0  0.2312854037831102 0.1609971345908053 0  0.2305037573006055 0.1603828220269823 0  0.2297100514486559 0.1597841717365137 0  0.2289046000113105 0.1592014203900902 0  0.2280877214161108 0.1586347983728962 0  0.2272597386082051 0.1580845296935329 0  0.2264209789226942 0.1575508318954712 0  0.2255717739552211 0.1570339159710467 0  0.2247124594308835 0.1565339862780478 0  0.2238433750714713 0.1560512404589033 0  0.2229648644611936 0.1555858693625665 0  0.2220772749108404 0.1551380569690615 0  0.2211809573204692 0.1547079803167439 0  0.2202762660406911 0.1542958094323167 0  0.2193635587325747 0.1539017072636076 0  0.2184431962262392 0.153525829615146 0  0.2175155423782314 0.1531683250865786 0  0.216580963927646 0.1528293350139083 0  0.215639830351152 0.1525089934136243 0  0.2146925137169349 0.1522074269297239 
[...]
<PointData  Scalars="f_19"> 
<DataArray  type="Float64"  Name="f_19"  format="ascii">3.6898773124346962e-01  3.8974940648743039e-01  0.0000000000000000e+00  0.0000000000000000e+00  -8.4978809488202189e-01  -4.6534476768854161e-01  -9.8505406139923402e-01  1.8682012157194261e+00  3.8964910210954229e-01  3.9008165126124017e-01  3.9170050344061741e-01  3.9524429079692180e-01  4.0124163024664722e-01  4.1015444876053780e-01  4.2232866098699223e-01  4.3794092805234552e-01  4.5700741136098116e-01  4.7935933640957917e-01  5.0465104032501373e-01  5.3242237395905045e-01  5.6161069287124610e-01  5.9139673996703568e-01  6.2086242118427759e-01  6.4819608218891100e-01  6.7234985666382174e-01  6.9235059190895221e-01  7.0642293872841566e-01  7.1392190951430212e-01  7.1420667112203318e-01  7.0795763194851091e-01  6.9458106268661457e-01  6.7537626850033139e-01  6.5051408762342589e-01  6.2214419284928013e-01  5.9150186530931592e-01  5.5951546179614176e-01  5.2792546670885310e-01  4.9783114973454384e-01  4.6987640633841810e-01  4.4496354077422745e-01  4.2367730386732916e-01  4.0603408263325241e-01  3.9226092092230880e-01  3.8216584169319512e-01  3.7524198745637399e-01  3.7124779488684873e-01  3.6929492445801515e-01  3.6891855256894218e-01  3.6850067134173686e-01  3.6779953847363067e-01  3.6652323474477594e-01  3.6432392214928638e-01  3.6093990301388273e-01  3.5572562948595682e-01  3.4826301845479796e-01  3.3745441532395276e-01  3.2331034355904881e-01  3.0302952327351018e-01  2.7695922221327662e-01  2.4301943425145367e-01  2.0205378999067491e-01  1.5371825929372770e-01  9.8352749458783056e-02  3.9206753994351001e-02  -1.9337216929071935e-02  -7.6206479784555858e-02  -1.2889003270266830e-01  -1.6727048729885372e-01  -1.9895232425129664e-01  -2.1077213983132068e-01  -2.1360227786210528e-01  -1.9530782487309437e-01  -1.6112424125383701e-01  -1.1566098419133414e-01  -5.7118518197156173e-02  -8.8820873942512403e-04  4.2770669809194861e-02  6.9654558983818851e-02  5.6991667818327978e-02  1.9275284729127772e-02  -5.2615429624471466e-02  -1.2058776269184668e-01  -1.5412179512205962e-01  -1.2556772848686376e-01  -6.1201773319257365e-02  -5.6073738170852108e-03  2.2495146564742535e-02  2.4079369494252219e-02  -4.5324535674182587e-03  -5.0024670859109742e-02  -8.5453377283638138e-02  -7.9990485566732702e-02  -2.7410717900012829e-02  2.6331016838409799e-02  3.0398272882562579e-02  4.3597499323995960e-02  4.9701164541098221e-02  5.4468939949605978e-02  5.5639215250641694e-02  4.8241771962457353e-02  3.6772141068760852e-02  2.9526629340667361e-02  1.8744504562633903e-02  8.8159213890202093e-03  0.0000000000000000e+00  0.0000000000000000e+00  0.0000000000000000e+00  0.0000000000000000e+00  8.2995254910886804e-03  2.0049088334638004e-02  2.5988047089129863e-02  4.0294874643210944e-02  4.9995263071570789e-02  5.5589998355745671e-02  7.3056657102719233e-02  6.2350786563263691e-02  3.0823650414765889e-02  -4.8332026256697807e-03  -2.7577300511365973e-02  -3.2188897928251123e-02  -2.7732010264406776e-02  -2.1914013675776924e-02  -4.3294126865133023e-02  -8.9032925736617211e-02  -1.2284895298244777e-01  -1.0113352306181693e-01  -2.1883899665398228e-02  5.4248825674232358e-02  1.1995870316003415e-01  1.2797357220920444e-01  8.3082940792705423e-02  1.7240272135284250e-02  -6.3688431291231196e-02  -1.3674469917430279e-01  -1.7612279517089857e-01  -1.9153272875006064e-01  -1.9208532474338080e-01  -1.8202945938579113e-01  -1.7523714242788371e-01  -1.6265295682472439e-01  -1.4689331543858083e-01  -1.2982242673106550e-01  -1.0785150744580289e-01  -7.8885006380914419e-02  -4.5970618577982174e-02  -4.1619167899180120e-03  3.8743774485924504e-02  8.7786216598133029e-02  1.3462527769065674e-01  1.8153376545843683e-01  2.2358090958571408e-01  2.6108124361638796e-01  2.9191769600031320e-01  3.1742560095658762e-01  3.3724358301314161e-01  3.5265732634055696e-01  3.6372130613957632e-01  3.7209027779766779e-01  3.7814340881663200e-01  3.8236897798274128e-01  3.8532037552275300e-01  3.8727501135489584e-01  3.8848107204594595e-01  3.8920559612161942e-01  -8.3567947339270587e-01  -8.2134603101198445e-01  -8.0669038338036125e-01  -7.9182310014054447e-01  -7.7673045038223787e-01  -7.6177351735981436e-01  -7.4658909515012861e-01  -7.3162645592309494e-01  -7.1688183736687405e-01  -7.0197895600020077e-01  -6.8830245024347791e-01  -6.7411325341063211e-01  -6.6061306216839699e-01  -6.4765865636484754e-01  -6.3514495223888856e-01  -6.2288617140979652e-01  -6.1138098198918578e-01  -6.0019355310288258e-01  -5.8960280715059610e-01  -5.7946910446746691e-01  -5.6991986491828428e-01  -5.6077219742030604e-01  -5.5213467382325843e-01  -5.4395555128640860e-01  -5.3623320757672788e-01  -5.2897520885518556e-01  -5.2212278752271968e-01  -5.1570470123594414e-01  -5.0964497050019197e-01  -5.0396916091070143e-01  -4.9861127284307616e-01  -4.9361139170475021e-01  -4.8890694443160704e-01  -4.8452839064148279e-01  -4.8041302034833244e-01  -4.7658651839859101e-01  -4.7302577113046174e-01  -4.6969417384012757e-01  -4.6662129027212562e-01  -4.6376511539973009e-01  -4.6113863589072818e-01  -4.5870534910031296e-01  -4.5648018831213100e-01  -4.5443337212761070e-01  -4.5257812293877397e-01  -4.5088351606672977e-01  -4.4935373153354774e-01  -4.4796556551254035e-01  -4.4672370037646381e-01  -4.4561129243241199e-01  -4.4463468409343115e-01  -4.4377009989703703e-01  -4.4302552464110895e-01  -4.4238723933476543e-01  -4.4186236842126247e-01  -4.4143986117572015e-01  -4.4112738604245877e-01  -4.4091381918861744e-01  -4.4080330957400593e-01  -4.4079283961706284e-01  -4.4089718037906772e-01  -4.4110493454990163e-01  -4.4142341651888806e-01  -4.4188803623488226e-01  -4.4247536450851294e-01  -4.4318461731812170e-01  -4.4401971956784558e-01  -4.4497864790583563e-01  -4.4605265140630423e-01  -4.4732568172594533e-01  -4.4872499419356060e-01  -4.5030123613436740e-01  -4.5198288458748109e-01  -4.5388553499510992e-01  -4.5585891373687931e-01  -4.5800427999711663e-01  -4.6033138643945609e-01  -4.6277560591095934e-01  -4.6802808748405833e-01  -4.7083926089618566e-01  -4.7379788190044386e-01  -4.7681960767491233e-01  -4.7992152391598614e-01  -4.8312524163009291e-01  -4.8635013408604111e-01  -4.8964327731081725e-01  -4.9297975184368786e-01  -4.9630418309642327e-01  -4.9964482032745794e-01  -5.0296273851027851e-01  -5.0627457565550982e-01  -5.0952562180207184e-01  -5.1274118944629743e-01  -5.1588621725058570e-01  -5.1896546299081758e-01  -5.2196616032364640e-01  -5.2486961712847791e-01  -5.2769967646503613e-01  -5.3041824086400946e-01  -5.3305478296678965e-01  -5.3558155571894683e-01  -5.3802704987860084e-01  -5.4038671136868510e-01  -5.4266413558722548e-01  -5.4487452551716087e-01  -5.4701045623237232e-01  -5.4910886633164746e-01  -5.5116801663303372e-01  -5.5322671910969723e-01  -5.5528650148478098e-01  -5.5735261646063872e-01  -5.5948674493308981e-01  -5.6168864742368241e-01  -5.6399469783433676e-01  -5.6642869795237216e-01  -5.6900188604856938e-01  -5.7177109143282734e-01  -5.7472931768456992e-01  -5.7793372956027089e-01  -5.8140494244855456e-01  -5.8514519304077761e-01  -5.8918250896235391e-01  -5.9357542521648887e-01  -5.9831006904353112e-01  -6.0343306432881982e-01  -6.0890865102865954e-01  -6.1483473472619599e-01  -6.2117617878074582e-01  -6.2789338559920249e-01  -6.3506148747841562e-01  -6.4283941333350081e-01  -6.5098634805098587e-01  -6.5952678473306625e-01  -6.6867199323478621e-01  -6.7837059501924557e-01  -6.8848288120502388e-01  -6.9900229094283362e-01  -7.1019277812103221e-01  -7.2182569486388592e-01  -7.3399753392785339e-01  -7.4678819990914835e-01  -7.5989097720222798e-01  -7.7332043928009953e-01  -7.8737693808254716e-01  -8.0191706343569025e-01  -8.1663485907338262e-01  -8.3182208590122675e-01  -8.4716021739851533e-01  -8.6273637266333536e-01  -8.7835344441740382e-01  -8.9415622616170465e-01  -9.0996499437299083e-01  -9.2565433928748020e-01  -9.4105791970187025e-01  -9.5615178117723454e-01  -9.7080612676169886e-01  -9.9865092333127037e-01  -1.0115617682611269e+00  -1.0235218923513378e+00  -1.0341236397571396e+00  -1.0438867699842189e+00  -1.0528276809341304e+00  -1.0600029438646299e+00  -1.0656903125639192e+00  -1.0697797502776520e+00  -1.0722559137087249e+00  -1.0729601741424157e+00  -1.0716529230285707e+00  -1.0683889450284465e+00  -1.0629008780058593e+00  -1.0552787767580631e+00  -1.0453024218270659e+00  -1.0331208546601824e+00  -1.0183703362508698e+00  -1.0014329947326293e+00  -9.8198103256124181e-01  -9.6009433724397708e-01  -9.3562082408506442e-01  -9.0820042030915593e-01  -8.7865300156275639e-01  -8.4661816090008202e-01  -8.1177415340109127e-01  -7.7530531730651941e-01  -7.3515246756243080e-01  -6.9321706994328081e-01  -6.4899479077970001e-01  -6.0240116067551353e-01  -5.5335859248861097e-01  -5.0249843882519019e-01  -4.4944907659169708e-01  -3.9421361193966187e-01  -3.3741570863739123e-01  -2.7856455192537299e-01  -2.1850691079359041e-01  -1.5672811266751419e-01  -9.3233672296497316e-02  -2.8636141218770051e-02  3.6814287725520596e-02  1.0357156542738001e-01  1.7122745166965819e-01  2.3931402194062959e-01  3.0812806014799693e-01  3.7719092979077579e-01  4.4639917232297460e-01  5.1589742498980795e-01  5.8527578034802452e-01  6.5437839263563091e-01  7.2293287208965040e-01  7.9105997223614122e-01  8.5823752149322241e-01  9.2466310626113912e-01  9.9008001411556557e-01  1.0542400729958508e+00  1.1165381449722345e+00  1.1778816562746894e+00  1.2370916837491945e+00  1.2942721410424689e+00  1.3498386638844275e+00  1.4031932163983558e+00  1.4541057228647003e+00  1.5024858079193526e+00  1.5485482268055337e+00  1.5920489128636452e+00  1.6323358735971802e+00  1.6700680329416051e+00  1.7046721453418903e+00  1.7362049723077764e+00  1.7645568554866444e+00  1.7897380922532380e+00  1.8112234920746535e+00  1.8295710794129096e+00  1.8444460343684446e+00  1.8563657025455613e+00  1.8640047980406225e+00  1.8692377116018302e+00  1.8666094226699947e+00  1.8605147478387971e+00  1.8509454346052980e+00  1.8378008189823498e+00  1.8213602251389398e+00  1.8009547363406082e+00  1.7776183285214084e+00  1.7510794530561298e+00  1.7212759404522155e+00  1.6884722643321202e+00  1.6524302501467238e+00  1.6137588625411632e+00  1.5723150943998652e+00  1.5278700808651033e+00  1.4811120062575900e+00  1.4315931758483109e+00  1.3798725244654868e+00  1.3259227532090723e+00  1.2695468019444458e+00  1.2123131778065457e+00  1.1528732269147788e+00  1.0914339317988828e+00  1.0289719050153052e+00  9.6508015906348066e-01  9.0031060046524647e-01  8.3441323396805778e-01  7.6775453159287987e-01  7.0087821277613194e-01  6.3316414784017838e-01  5.6531155929257404e-01  4.9758822631792221e-01  4.2978461564667397e-01  3.6217954257294238e-01  2.9503103725945190e-01  2.2865731223000421e-01  1.6281827400870652e-01  9.7776902023468268e-02  3.3791171298023955e-02  -2.8675542613466266e-02  -8.9976781471346287e-02  -1.4999914996160463e-01  -2.0814319483322993e-01  -2.6487159658449067e-01  -3.1988027420024867e-01  -3.7262843308459664e-01  -4.2316164118247307e-01  -4.7199759523132317e-01  -5.1837893206403862e-01  -5.6265439829465735e-01  -6.0436215891050571e-01  -6.4369278069264979e-01  -6.8069756447320595e-01  -7.1512781380430712e-01  -7.4701635662444676e-01  -7.7699465510727117e-01  -8.0310038376698389e-01  -8.2756488892730207e-01  -8.4932013551055385e-01  -8.6863162999728916e-01  -8.8532320998363490e-01  -8.9959558623101710e-01  -9.1185291401337509e-01  -9.2133259653268595e-01  -9.2866325423465135e-01  -9.3373217228109273e-01  -9.3681719251348550e-01  -9.3785445366776365e-01  -9.3699772788296354e-01  -9.3453567040319796e-01  -9.3005206466927770e-01  -9.2419908377465165e-01  -9.1691795592482883e-01  -9.0758057269613213e-01  -8.9878564682735651e-01  -8.8728529378065790e-01  -8.7549026242287620e-01  -8.6292083079315929e-01  4.4707383507579629e-01  1.5989607305889303e-01  8.5887643966110461e-01  7.9919950726947053e-01  3.2772997297402251e-01  -1.2413110631550156e-01  -4.6000099595034744e-01  -1.7653634884274502e-02  -3.5481996266782129e-01  -6.6187602475760687e-01  6.0217916947577077e-01  7.1890230603408323e-02  6.7850254639541252e-01  1.6533589186529835e-01  -3.4800178206385718e-01  1.2216395918646670e+00  1.1950596878264159e+00  -2.0554211937100061e-01  -3.5237376520077907e-01  1.0943902347112122e+00  -4.1261896599661230e-01  -4.5373200658421592e-01  -3.1408954150687279e-01  -4.4085193668067529e-01  -5.7649661259460061e-01  3.8892782280041277e-01  6.6353811035484422e-01  3.5927202841280759e-02  -3.8757962827109643e-01  1.5440712613966827e+00  -1.5875960127916119e-01  -4.4287643893885603e-01  9.1352187958682263e-01  1.5065360952850657e+00  -5.1002541861990602e-01  1.4506399273791377e+00  -4.9355951939306564e-01  -4.5080378984590691e-01  1.1240519206481741e+00  -5.7999461421404686e-01  -5.6896419748851779e-01  -5.4614043710823434e-01  -5.3137122996345820e-01  -4.3870581431425576e-01  -4.5245495860151691e-01  -6.8960085578572072e-01  4.1330787293039450e-01  -1.0295184689586702e-01  2.0348494946025655e-01  8.6454771418693421e-01  -4.8369340943341799e-01  -5.3405030099726336e-01  1.7241279804784650e+00  1.1563775084797854e+00  6.3265569804188504e-01  -3.2547104077029265e-01  -6.3541063760535410e-01  4.6270470104110567e-01  -8.3630470976274285e-01  -7.7341076053691793e-01  -6.8157992881432583e-01  1.7288154302791068e+00  -6.0853475620483288e-01  -6.1746065645680870e-01  -5.6542195147751251e-01  -5.1748797406951019e-01  -6.9488854077017237e-01  -9.3908536485342361e-03  1.4408734430754313e+00  7.0839031037379085e-01  5.6737634394772829e-01  -4.4389805229401869e-01  -5.5227759369891805e-01  -5.7840499417734237e-01  -4.9023510642325058e-01  -4.5264360144887383e-01  -4.6815592920599663e-01  -4.5030461171475372e-01  -7.8526135918956219e-01  3.9682325934884605e-02  1.6814555509001969e+00  4.2119853958600711e-01  -5.3902844682566753e-01  -5.0972736372212379e-01  -6.8324689391022808e-01  -9.2185126204403101e-01  1.4362827756654353e+00  -4.6797647514785190e-01  6.4401823223146404e-01  1.1496550148049276e+00  -5.3663687537866711e-01  4.1659156375907247e-01  3.2043697251888020e-01  5.6996514528881259e-01  2.4930055640665794e-02  1.0120102017339281e+00  8.8484735648211377e-01  -4.4503679797949675e-01  7.0187643334346805e-01  1.0711131311430013e+00  7.3818167049554606e-01  -8.9436085303943547e-01  -5.2400095650237266e-01  4.5445005746670077e-02  2.4742163922075774e-01  -1.3157968249346666e-01  -6.7171555358832258e-01  6.0785797022198618e-01  -5.9481363884491889e-01  -4.8669316866876694e-01  9.3826154826584952e-03  3.5131786808017579e-01  8.3258266726736085e-01  -1.5679922388319370e-01  3.3105895907172056e-01  1.8027587177759692e+00  3.7539893914013622e-01  -3.3022303363177380e-01  -1.6995648346339684e-01  -5.7444267408750105e-01  1.6257340764064532e+00  1.5283935080851671e-01  -7.6540623356278925e-01  3.3447212165394058e-01  9.1291362708287660e-01  -9.0663148543343808e-01  -4.5460536799559470e-01  -7.6066295779157123e-01  -2.7583329657688538e-01  1.3851389432006727e+00  7.9890118390907372e-01  -4.4361389417320968e-01  -4.4592815820571657e-01  -6.6788025814666219e-01  9.5908437376205791e-01  -4.3209974659030542e-01  -8.2457949615190818e-01  1.2760596332223171e+00  -5.3777899868603907e-01  -6.4570033980022457e-01  4.3846781252105210e-01  -8.5189431367271040e-01  -7.8157088740438174e-01  1.1791760958203075e+00  9.8722341301813366e-01  -5.9493089910876717e-01  3.8329492257233960e-01  -2.3783362002102272e-02  -8.4729502531135659e-01  -4.2124947939694396e-01  6.9362542075956501e-01  8.1452771116719902e-01  1.5673882256719669e+00  1.7895636903131644e+00  1.2380260916175172e+00  2.6830999380608594e-01  -3.3212520894443331e-01  -1.0165705434260471e-01  3.6921810128513993e-01  -2.7724069214090091e-01  -5.6236725540523347e-01  -5.5241513620685578e-01  -3.0287165314126396e-01  5.6299743236471123e-01  -4.8976395187011340e-01  -5.1716662378239464e-01  -2.7015687563969359e-01  -5.9106352752644598e-01  1.3581511890781466e+00  4.2959622185702578e-01  4.2659592736903390e-01  -9.9978950871365380e-01  1.4019219632600046e+00  -4.5985292012586132e-01  -4.5031618693360137e-01  2.8607639885323444e-01  1.7873228645634178e+00  4.1749748871517089e-01  -1.1278608264998406e-01  1.5702081468818450e+00  -8.8117914747821013e-01  6.9189353378014273e-01  6.7880227343650001e-01  -5.1015568913771125e-01  6.3907531348974911e-01  7.4203987956014761e-01  9.5151756390946285e-01  -4.2352195243413021e-01  -4.8288519768394339e-01  -6.7016787477530360e-01  -2.0008629783268314e-01  3.8971633534215533e-01  9.2876851949845529e-01  -7.3044362963377529e-01  1.1839266055552178e+00  4.8211537922813530e-01  1.5721006028668696e+00  -6.2273049143838910e-01  1.8826600295276674e-01  -2.7925835439549856e-01  5.2783481744475808e-02  -4.0482039316490459e-01  -1.5942149436992410e-02  8.3885958214430245e-01  2.5657761042514904e-01  -4.4851619112865970e-01  -8.8681415792585983e-01  -1.0171777973679759e+00  4.8182356149675704e-01  4.9977266543925625e-01  -4.7686143081150351e-01  -7.3911784543862979e-01  -5.6189974080067351e-01  -5.6915045070784220e-01  2.6865287957009143e-01  1.3416032728470946e+00  -4.5526732240886264e-01  7.0909257505396484e-01  -1.5226726812277688e-01  1.2961616572872960e+00  5.8864205885430965e-01  -5.4494102345713191e-01  -5.3386327720038518e-01  7.0718253404377618e-01  -6.6802669770499912e-01  1.6638464435803062e+00  -2.2343722595435635e-02  -9.7450635973618160e-01  -4.7335692923184736e-01  -1.1964504797982126e-01  1.3129510219503512e-01  -4.5646761313304995e-01  1.5415935840955033e-01  4.2224296067659116e-02  1.0592078058204504e+00  9.6117638385901916e-01  4.0491263006837121e-02  6.3630426096380177e-01  8.5566145530947446e-01  3.8203802497276888e-02  1.4917369495525445e+00  1.0210239679097084e-01  1.7173589221638941e+00  5.9674235362265604e-01  -4.6006594199043738e-01  1.5223212865745434e-01  -6.0429741475769205e-01  2.6342425129025060e-01  1.3840434204719849e+00  -4.9788097246394575e-01  1.5914580455171594e+00  1.0556072851766900e+00  2.7870591394115338e-02  -4.9919014272495948e-01  -6.5493144613653775e-01  1.0120051439707092e+00  -5.4882006774036718e-01  -4.3729295462177609e-01  -6.6522518576529022e-02  3.3234477360213405e-01  -9.1476950352903826e-03  8.7872064203898884e-02  7.7313988918395804e-01  -7.8809904920554830e-01  6.5610147604129865e-01  7.2328610664199866e-01  -3.9739914192945364e-01  1.8330075773920851e+00  -5.8853119861307168e-01  8.1260347057325899e-01  -1.8916379283081095e-01  -4.1089930947177650e-01  -3.7124066080492452e-03  -3.2768158038888934e-01  5.3256268845183419e-01  3.7626882908694426e-01  -2.7947496606581995e-01  -3.2911185736334941e-01  7.1061397256567027e-01  1.1936709694361110e+00  -4.4405926284879343e-01  1.7365398577720002e+00  -1.7341955337908005e-01  -4.5884562116836697e-01  -6.6791757913591487e-02  5.1459731172591072e-01  9.0768974190492024e-01  6.2849375596112270e-02  -4.5434827093758512e-01  9.5252549128023933e-01  3.7644614408945726e-01  3.1256064686384971e-01  6.2120526981960789e-01  2.3326088591917787e-01  -5.5850710867203190e-01  8.6213532063409293e-01  1.0064833391392680e+00  -5.9302489595480534e-01  4.2795547698713804e-01  1.6348753460200229e+00  -4.4339604625967138e-01  -8.1676593978262646e-01  -9.0568286956870669e-01  9.2263162385404496e-01  -5.8051238870391364e-01  1.3198298004014821e+00  5.1722984532711291e-01  -5.5723014210098132e-01  -5.9607665075605898e-01  -9.7259231296776694e-01  -8.2640904831498874e-01  -2.9381786024428097e-01  -7.9850662920875393e-01  -8.6472865439849189e-01  5.4007072042417248e-01  -1.9187080264872297e-01  8.3409018861620929e-02  1.0556445127510659e+00  8.2075362993068057e-01  1.1355322939466452e+00  -1.4807706027691625e-01  1.1255129190670499e+00  1.3504417619737972e+00  3.6823400247510157e-01  3.5881091098051732e-01  4.1721576182409909e-01  -8.4457459411936567e-02  -5.7153318502989214e-01  -5.4367109714948747e-01  1.8352192522581348e+00  -3.2545244478855939e-01  -4.4161441493563491e-01  5.5476310588330524e-01  -1.3018430304687464e-01  5.5974733839207404e-