<?xml version="1.0"?>
<VTKFile type="UnstructuredGrid"  version="0.1"  >
<UnstructuredGrid>
<Piece  NumberOfPoints="6146" NumberOfCells="11816">
<Points>
<DataArray  type="Float64"  NumberOfComponents="3"  format="ascii">0 0 0  0 0.41 0  2.2 0 0  2.2 0.41 0  0.2 0.25 0  0.25 0.2 0  0.2 0.15 0  0.15 0.2 0  0 0.4000000000000008 0  0 0.3900000000000259 0  0 0.3800000000000606 0  0 0.3700000000000953 0  0 0.3600000000001082 0  0 0.3500000000001241 0  0 0.3400000000001558 0  0 0.3300000000001905 0  0 0.3200000000002133 0  0 0.3100000000002381 0  0 0.3000000000002728 0  0 0.2900000000003075 0  0 0.2800000000003204 0  0 0.2700000000003551 0  0 0.2600000000003897 0  0 0.2500000000004243 0  0 0.2400000000004419 0  0 0.2300000000004503 0  0 0.2200000000004849 0  0 0.2100000000005195 0  0 0.2000000000005203 0  0 0.1900000000004874 0  0 0.1800000000004544 0  0 0.1700000000004476 0  0 0.1600000000004316 0  0 0.1500000000003986 0  0 0.1400000000003795 0  0 0.1300000000003759 0  0 0.1200000000003428 0  0 0.1100000000003098 0  0 0.1000000000002768 0  0 0.09000000000024383 0  0 0.08000000000021068 0  0 0.07000000000020096 0  0 0.0600000000001879 0  0 0.05000000000015475 0  0 0.04000000000012166 0  0 0.03000000000008857 0  0 0.02000000000005536 0  0 0.01000000000002221 0  0.01007679662828254 0 0  0.02056899213655081 0 0  0.03149370747042262 0 0  0.04286877787651972 0 0  0.05471276293192491 0 0  0.06704499828634325 0 0  0.07988560641938237 0 0  0.09325554633647967 0 0  0.1071766410311884 0 0  0.1216716067611488 0 0  0.1367641016067741 0 0  0.152478764481749 0 0  0.1688412308389146 0 0  0.1858782107385222 0 0  0.2036175120042742 0 0  0.2220880805924512 0 0  0.2413200720246992 0 0  0.2613448680153237 0 0  0.2821951505493904 0 0  0.303904948281349 0 0  0.3265096961752511 0 0  0.350046282509153 0 0  0.3745531279755512 0 0  0.4000702232727447 0 0  0.4266392157867663 0 0  0.4543034693483497 0 0  0.4831081324012234 0 0  0.5131002188568834 0 0  0.54432867931559 0 0  0.5768444722696365 0 0  0.6107006746708104 0 0  0.6459525479050182 0 0  0.682657603414822 0 0  0.7208757746968344 0 0  0.7606694182609572 0 0  0.8021034816821726 0 0  0.8452455957902169 0 0  0.8901661663799046 0 0  0.9369385072466508 0 0  0.9856389585079668 0 0  1.036346998189458 0 0  1.089145397956563 0 0  1.144120312199143 0 0  1.201361473554013 0 0  1.260962300595225 0 0  1.323020078687202 0 0  1.387636074977323 0 0  1.45491573887162 0 0  1.524968897456634 0 0  1.597909863440663 0 0  1.673857723466354 0 0  1.752936382158491 0 0  1.835274909595432 0 0  1.921007725838496 0 0  2.010274709627921 0 0  2.103221572060948 0 0  2.2 0.08199999999981657 0  2.2 0.1639999999995688 0  2.2 0.2459999999995603 0  2.2 0.327999999999785 0  2.103221572061646 0.41 0  2.010274709629372 0.41 0  1.921007725840496 0.41 0  1.835274909597994 0.41 0  1.752936382161568 0.41 0  1.673857723469928 0.41 0  1.597909863444748 0.41 0  1.524968897461176 0.41 0  1.454915738876575 0.41 0  1.387636074982656 0.41 0  1.323020078692824 0.41 0  1.260962300601091 0.41 0  1.201361473560091 0.41 0  1.144120312205409 0.41 0  1.089145397962884 0.41 0  1.036346998195403 0.41 0  0.9856389585135474 0.41 0  0.9369385072518699 0.41 0  0.8901661663847817 0.41 0  0.845245595794772 0.41 0  0.802103481686421 0.41 0  0.760669418264917 0.41 0  0.7208757747005239 0.41 0  0.6826576034182545 0.41 0  0.6459525479082096 0.41 0  0.6107006746737729 0.41 0  0.5768444722723829 0.41 0  0.5443286793181334 0.41 0  0.5131002188592353 0.41 0  0.483108132403395 0.41 0  0.4543034693503529 0.41 0  0.4266392157886099 0.41 0  0.4000702232744378 0.41 0  0.3745531279771039 0.41 0  0.3500462825105728 0.41 0  0.3265096961765468 0.41 0  0.3039049482825278 0.41 0  0.2821951505504596 0.41 0  0.2613448680163102 0.41 0  0.2413200720256172 0.41 0  0.2220880805933043 0.41 0  0.2036175120050649 0.41 0  0.1858782107392414 0.41 0  0.1688412308395617 0.41 0  0.1524787644823298 0.41 0  0.1367641016072927 0.41 0  0.1216716067615997 0.41 0  0.1071766410315749 0.41 0  0.09325554633680744 0.41 0  0.07988560641965403 0.41 0  0.06704499828656418 0.41 0  0.05471276293210092 0.41 0  0.04286877787665544 0.41 0  0.03149370747052016 0.41 0  0.02056899213661323 0.41 0  0.01007679662831285 0.41 0  0.2009941093832422 0.2499901164885035 0  0.2019878257548352 0.2499604698613656 0  0.2029807562584742 0.2499110718390977 0  0.2039725083485626 0.2498419419507366 0  0.2049626899453778 0.2497531075261239 0  0.2059509095900689 0.2496446036851018 0  0.2069367765994233 0.2495164733236293 0  0.2079199012203332 0.2493687670968211 0  0.208899894783849 0.2492015433989262 0  0.209876369858873 0.2490148683402368 0  0.2108489404052936 0.2488088157209575 0  0.2118172219266183 0.248583467002027 0  0.2127808316219855 0.248338911272912 0  0.2137393885375067 0.2480752452163837 0  0.2146925137168532 0.2477925730703012 0  0.2156398303510693 0.247491006586403 0  0.2165809639275547 0.2471706649861239 0  0.2175155423781385 0.2468316749134561 0  0.2184431962261471 0.2464741703848905 0  0.2193635587324768 0.2460982927364335 0  0.2202762660405913 0.2457041905677276 0  0.2211809573203641 0.2452920196833053 0  0.2220772749107273 0.2448619430309942 0  0.2229648644610677 0.2444141306374986 0  0.2238433750713457 0.2439487595411649 0  0.2247124594307593 0.2434660137220228 0  0.2255717739550953 0.2429660840290282 0  0.2264209789225549 0.2424491681046155 0  0.227259738608055 0.2419154703065648 0  0.2280877214159585 0.2413652016272072 0  0.2289046000111568 0.2407985796100187 0  0.2297100514485014 0.2402158282636004 0  0.2305037573004443 0.2396171779731418 0  0.2312854037829426 0.2390028654093291 0  0.2320546818795267 0.2383731334347658 0  0.2328112874634348 0.2377282310079845 0  0.2335549214178666 0.2370684130850081 0  0.2342852897542382 0.2363939405185524 0  0.23500210372839 0.2357050799549172 0  0.2357050799547543 0.2350021037285561 0  0.236393940518396 0.2342852897544042 0  0.2370684130848552 0.2335549214180355 0  0.2377282310078377 0.2328112874636036 0  0.2383731334346237 0.2320546818796969 0  0.2390028654091947 0.2312854037831102 0  0.2396171779730177 0.2305037573006055 0  0.2402158282634863 0.2297100514486559 0  0.2407985796099098 0.2289046000113105 0  0.2413652016271038 0.2280877214161108 0  0.2419154703064672 0.2272597386082051 0  0.2424491681045289 0.2264209789226942 0  0.2429660840289533 0.2255717739552211 0  0.2434660137219522 0.2247124594308835 0  0.2439487595410967 0.2238433750714713 0  0.2444141306374335 0.2229648644611936 0  0.2448619430309386 0.2220772749108404 0  0.2452920196832561 0.2211809573204692 0  0.2457041905676833 0.2202762660406911 0  0.2460982927363924 0.2193635587325747 0  0.246474170384854 0.2184431962262392 0  0.2468316749134214 0.2175155423782314 0  0.2471706649860917 0.216580963927646 0  0.2474910065863757 0.215639830351152 0  0.2477925730702761 0.2146925137169349 0  0.2480752452163603 0.2137393885375889 0  0.2483389112728914 0.2127808316220633 0  0.248583467002012 0.2118172219266803 0  0.2488088157209458 0.2108489404053462 0  0.2490148683402261 0.2098763698589259 0  0.249201543398917 0.2088998947838999 0  0.2493687670968142 0.2079199012203759 0  0.2495164733236233 0.2069367765994661 0  0.2496446036850975 0.205950909590105 0  0.2497531075261207 0.2049626899454101 0  0.2498419419507343 0.2039725083485922 0  0.2499110718390968 0.2029807562584889 0  0.2499604698613655 0.2019878257548365 0  0.2499901164885035 0.2009941093832422 0  0.2499901164885035 0.1990058906167579 0  0.2499604698613656 0.1980121742451648 0  0.2499110718390977 0.1970192437415259 0  0.2498419419507366 0.1960274916514374 0  0.2497531075261239 0.1950373100546222 0  0.2496446036851018 0.1940490904099311 0  0.2495164733236293 0.1930632234005767 0  0.2493687670968211 0.1920800987796668 0  0.2492015433989262 0.191100105216151 0  0.2490148683402368 0.190123630141127 0  0.2488088157209575 0.1891510595947065 0  0.248583467002027 0.1881827780733817 0  0.248338911272912 0.1872191683780146 0  0.2480752452163837 0.1862606114624933 0  0.2477925730703012 0.1853074862831468 0  0.247491006586403 0.1843601696489307 0  0.2471706649861239 0.1834190360724454 0  0.2468316749134561 0.1824844576218615 0  0.2464741703848905 0.181556803773853 0  0.2460982927364335 0.1806364412675232 0  0.2457041905677276 0.1797237339594087 0  0.2452920196833053 0.1788190426796359 0  0.2448619430309942 0.1779227250892727 0  0.2444141306374986 0.1770351355389324 0  0.2439487595411649 0.1761566249286543 0  0.2434660137220228 0.1752875405692407 0  0.2429660840290282 0.1744282260449047 0  0.2424491681046155 0.1735790210774451 0  0.2419154703065648 0.172740261391945 0  0.2413652016272072 0.1719122785840415 0  0.2407985796100187 0.1710953999888432 0  0.2402158282636004 0.1702899485514986 0  0.2396171779731418 0.1694962426995557 0  0.2390028654093291 0.1687145962170574 0  0.2383731334347658 0.1679453181204733 0  0.2377282310079845 0.1671887125365652 0  0.2370684130850081 0.1664450785821334 0  0.2363939405185524 0.1657147102457618 0  0.2357050799549172 0.16499789627161 0  0.2350021037285561 0.1642949200452457 0  0.2342852897544042 0.1636060594816041 0  0.2335549214180355 0.1629315869151449 0  0.2328112874636036 0.1622717689921623 0  0.2320546818796969 0.1616268665653763 0  0.2312854037831102 0.1609971345908053 0  0.2305037573006055 0.1603828220269823 0  0.2297100514486559 0.1597841717365137 0  0.2289046000113105 0.1592014203900902 0  0.2280877214161108 0.1586347983728962 0  0.2272597386082051 0.1580845296935329 0  0.2264209789226942 0.1575508318954712 0  0.2255717739552211 0.1570339159710467 0  0.2247124594308835 0.1565339862780478 0  0.2238433750714713 0.1560512404589033 0  0.2229648644611936 0.1555858693625665 0  0.2220772749108404 0.1551380569690615 0  0.2211809573204692 0.1547079803167439 0  0.2202762660406911 0.1542958094323167 0  0.2193635587325747 0.1539017072636076 0  0.2184431962262392 0.153525829615146 0  0.2175155423782314 0.1531683250865786 0  0.216580963927646 0.1528293350139083 0  0.215639830351152 0.1525089934136243 0  0.2146925137169349 0.1522074269297239 
[...]
<PointData  Scalars="f_19"> 
<DataArray  type="Float64"  Name="f_19"  format="ascii">4.8316150242393902e-01  4.8743286372705258e-01  0.0000000000000000e+00  0.0000000000000000e+00  -8.9325651454830757e-01  -4.5710563435196583e-01  -1.0185599577830620e+00  1.9674056873531740e+00  4.8733383528968505e-01  4.8764552177231540e-01  4.8900257959691135e-01  4.9215338494081357e-01  4.9763463606206776e-01  5.0593866676499999e-01  5.1743810645386412e-01  5.3234977705626174e-01  5.5072472240510140e-01  5.7244831775811122e-01  5.9721692908219393e-01  6.2460647607355513e-01  6.5361484453816798e-01  6.8346812497873843e-01  7.1322953348627227e-01  7.4115354493400476e-01  7.6617983004812662e-01  7.8730478430631501e-01  8.0274772589265286e-01  8.1180865494615051e-01  8.1381716924433056e-01  8.0937917613042598e-01  7.9784300473280756e-01  7.8045720098073779e-01  7.5735570894309479e-01  7.3061697521264968e-01  7.0145870370604879e-01  6.7078023993553404e-01  6.4030948318860625e-01  6.1112491278357117e-01  5.8387695372407089e-01  5.5947868898094222e-01  5.3851205728559237e-01  5.2101795404043572e-01  5.0724848070643302e-01  4.9704288094074295e-01  4.8993537528215386e-01  4.8572987744100665e-01  4.8358710255870885e-01  4.8310056377098559e-01  4.8266927278163235e-01  4.8182613230978261e-01  4.8019785407307897e-01  4.7737781696617232e-01  4.7307043652329323e-01  4.6667140128168461e-01  4.5771050306096411e-01  4.4528070966419531e-01  4.2958385314313596e-01  4.0825175719646606e-01  3.8196012842237609e-01  3.4940752665464780e-01  3.1196237991755921e-01  2.7040192588504952e-01  2.2647744698938529e-01  1.8418797354052618e-01  1.4782757620169953e-01  1.2264834665078375e-01  1.0684346505480267e-01  1.1169562513694491e-01  1.2840667947546847e-01  1.6241019457881761e-01  1.9920158179188677e-01  2.3833867021580801e-01  2.7213065043630030e-01  2.8400775308439319e-01  2.7455481898293616e-01  2.3005579470001863e-01  1.6494441445325950e-01  9.7532478142068890e-02  7.1200655394558415e-02  7.6734931217543906e-02  1.0054463342887691e-01  1.4936925932215500e-01  2.2229433713721589e-01  2.8413067536064279e-01  3.0329683959299830e-01  2.8669448419954829e-01  2.3252673204591029e-01  1.6110171614153479e-01  5.5916795850982443e-02  -2.8639085885459044e-03  9.7790978229310974e-02  2.2552315641576529e-01  2.7279401381535573e-01  1.9989705859045390e-01  3.8260063091916666e-02  -6.6665263971417157e-02  3.8734527270197230e-02  1.5429887778744039e-01  1.5846392530040221e-01  5.8257566949468084e-02  -6.7772088866554989e-02  -1.5448908679258355e-02  8.8005094381160123e-02  1.0684077105796456e-01  0.0000000000000000e+00  0.0000000000000000e+00  0.0000000000000000e+00  0.0000000000000000e+00  -1.0526668435577020e-01  -6.4255989360062674e-02  4.2458752811152876e-02  1.2408823560695335e-01  5.9586326016974243e-02  -5.6257518110639886e-02  -1.3202213723065672e-02  1.1956207758614838e-01  2.3290809840411925e-01  1.8042411586679158e-01  2.7920131508015478e-03  -3.6824786085910194e-02  7.1609398281745396e-02  1.9419584310569213e-01  2.8332741327877298e-01  2.9754412496550098e-01  2.3107973211394833e-01  1.0643625562892070e-01  4.9867584014349278e-02  8.8197524942280905e-02  1.5060643947500682e-01  2.1266601314393874e-01  2.7876990060846407e-01  3.3808666497371487e-01  3.7015083438921176e-01  3.6013333335130482e-01  3.0577361474313886e-01  2.2643547280669898e-01  1.4406605700949951e-01  7.7596572511613920e-02  3.6595212490114465e-02  2.7020068074378196e-02  3.3769892922983318e-02  4.9620166692703638e-02  6.9322875859622560e-02  9.3772404708307680e-02  1.2008931465498381e-01  1.5378822929806005e-01  1.8947633790604301e-01  2.3044356619565115e-01  2.7058655315323532e-01  3.1183518433095297e-01  3.4895914328163719e-01  3.8209722298000726e-01  4.0911888841809996e-01  4.3103759694889915e-01  4.4757703460587128e-01  4.6007229674566813e-01  4.6862401045948787e-01  4.7479838270927027e-01  4.7911388885930617e-01  4.8202261799743995e-01  4.8402487384209070e-01  4.8539227609118557e-01  4.8627623975008127e-01  4.8688125877637450e-01  -8.7681337162835571e-01  -8.6003875136243546e-01  -8.4282694686187276e-01  -8.2530110634172837e-01  -8.0744836812095722e-01  -7.8966534694548096e-01  -7.7155921173832676e-01  -7.5362562958390145e-01  -7.3586758003405961e-01  -7.1786885708162285e-01  -7.0119337708537532e-01  -6.8388170581710239e-01  -6.6730033174906966e-01  -6.5129869095105342e-01  -6.3576075569510659e-01  -6.2047464556521625e-01  -6.0603049344360671e-01  -5.9192022527349986e-01  -5.7847809791061922e-01  -5.6554253472510729e-01  -5.5327184206828528e-01  -5.4144784344338459e-01  -5.3020543075844506e-01  -5.1948896714115211e-01  -5.0929900630634029e-01  -4.9965545585455223e-01  -4.9049119012107290e-01  -4.8185917382507870e-01  -4.7367448092282693e-01  -4.6599496433841103e-01  -4.5875223531892034e-01  -4.5202915348280748e-01  -4.4576638009517533e-01  -4.4003832320377273e-01  -4.3478801016906637e-01  -4.3008036001959882e-01  -4.2592475648700356e-01  -4.2227724785016302e-01  -4.1920097919845145e-01  -4.1665607433105512e-01  -4.1465911982783926e-01  -4.1317603567885253e-01  -4.1220013478554246e-01  -4.1170273547207342e-01  -4.1164951149297252e-01  -4.1200865593438024e-01  -4.1273348403756954e-01  -4.1379796825244053e-01  -4.1514601556646330e-01  -4.1674636231581802e-01  -4.1853599364766630e-01  -4.2050889660441781e-01  -4.2259950565970178e-01  -4.2479403364581508e-01  -4.2703762315340865e-01  -4.2931835651420286e-01  -4.3158536849181994e-01  -4.3383573738208753e-01  -4.3604144993659205e-01  -4.3818587995024871e-01  -4.4022795135403270e-01  -4.4216901618796289e-01  -4.4400118980407444e-01  -4.4565442804134819e-01  -4.4717139204319717e-01  -4.4855021400647888e-01  -4.4979127044932027e-01  -4.5088841427771920e-01  -4.5187051666353495e-01  -4.5266926608337060e-01  -4.5334560245416161e-01  -4.5393700106342111e-01  -4.5442668242673284e-01  -4.5486576730695999e-01  -4.5525529769707829e-01  -4.5566130838322216e-01  -4.5607955940563527e-01  -4.5655687607962614e-01  -4.5776086136931443e-01  -4.5860154958127242e-01  -4.5966425472480449e-01  -4.6087887769051578e-01  -4.6237554203101622e-01  -4.6416200632019133e-01  -4.6616815644411747e-01  -4.6856907453438501e-01  -4.7126825190527089e-01  -4.7428164011078539e-01  -4.7764241636630500e-01  -4.8135645479816097e-01  -4.8541407958652072e-01  -4.8978456206516913e-01  -4.9450486078505518e-01  -4.9947218167837931e-01  -5.0477152701771366e-01  -5.1027524590803452e-01  -5.1601886973399969e-01  -5.2197835222479705e-01  -5.2807670793272166e-01  -5.3433412078346088e-01  -5.4067163613926772e-01  -5.4711094699937102e-01  -5.5353051768575645e-01  -5.5996936077297799e-01  -5.6635025605413014e-01  -5.7265252566857250e-01  -5.7891089419207775e-01  -5.8501764696976555e-01  -5.9101799327624172e-01  -5.9684666056515689e-01  -6.0251443205681143e-01  -6.0804657620353808e-01  -6.1339857905074646e-01  -6.1862260665010482e-01  -6.2371481080482849e-01  -6.2866807060824703e-01  -6.3356217121116676e-01  -6.3835811795040553e-01  -6.4316008036297645e-01  -6.4799785502272633e-01  -6.5285311722792105e-01  -6.5777003444888238e-01  -6.6286922736608000e-01  -6.6814576998836428e-01  -6.7366555743597112e-01  -6.7938855852058366e-01  -6.8546469490131956e-01  -6.9188483537024970e-01  -6.9858406368160431e-01  -7.0567143253256803e-01  -7.1336940473725319e-01  -7.2137835724781729e-01  -7.2970744021929501e-01  -7.3862228822158948e-01  -7.4807152645060160e-01  -7.5786404483835279e-01  -7.6798903325162993e-01  -7.7874095972556567e-01  -7.8986113245832412e-01  -8.0142742407156664e-01  -8.1353822537333942e-01  -8.2583337960330960e-01  -8.3831260125763707e-01  -8.5130070448607564e-01  -8.6464538027511950e-01  -8.7798712922960731e-01  -8.9164432187873599e-01  -9.0527699854807842e-01  -9.1894834522849722e-01  -9.3247146631694267e-01  -9.4597017553235485e-01  -9.5927962061249861e-01  -9.7224393683616306e-01  -9.8471594916903371e-01  -9.9664227792434823e-01  -1.0079213194658934e+00  -1.0283489813361941e+00  -1.0372233700240083e+00  -1.0449610835128658e+00  -1.0511289923284002e+00  -1.0562636492838533e+00  -1.0603999654649732e+00  -1.0626169855266123e+00  -1.0631769602963181e+00  -1.0620200003738076e+00  -1.0591048243023420e+00  -1.0543308132896618e+00  -1.0474422432519173e+00  -1.0385428038889981e+00  -1.0273423967899804e+00  -1.0139948899127005e+00  -9.9825148200170155e-01  -9.8032252015908317e-01  -9.5983374823096457e-01  -9.3718612640463339e-01  -9.1207091334859991e-01  -8.8459074530891879e-01  -8.5461462733064153e-01  -8.2178921285873507e-01  -7.8693724913552165e-01  -7.4973428691230215e-01  -7.0985206549985069e-01  -6.6845251741079292e-01  -6.2358999035805263e-01  -5.7707460717859282e-01  -5.2844811100703115e-01  -4.7765387513695812e-01  -4.2458691240567231e-01  -3.6991375901310414e-01  -3.1322546551953417e-01  -2.5459400194541526e-01  -1.9461183335850851e-01  -1.3277532866396263e-01  -6.9940752089621069e-02  -5.6244721480047536e-03  6.0169363523910585e-02  1.2686722545258350e-01  1.9419000713828308e-01  2.6256580397988982e-01  3.3164564119363465e-01  4.0093246059450621e-01  4.7072665229476190e-01  5.4057892041054367e-01  6.1033343743555413e-01  6.8014529581522687e-01  7.4964316947902709e-01  8.1866869077439719e-01  8.8693374751181642e-01  9.5457600355069117e-01  1.0210781013772552e+00  1.0866330779224291e+00  1.1510202636495674e+00  1.2139697887401091e+00  1.2748521676301874e+00  1.3346129582049480e+00  1.3920886353754129e+00  1.4473599899040515e+00  1.5008811438355367e+00  1.5520539964676530e+00  1.6006312277574017e+00  1.6465438964861512e+00  1.6900179409830383e+00  1.7308193311963371e+00  1.7682810954073473e+00  1.8030749541306292e+00  1.8346565823188727e+00  1.8630583213732184e+00  1.8882022388274098e+00  1.9100887110298419e+00  1.9281987275392900e+00  1.9430939320855078e+00  1.9544753970792623e+00  1.9628338715314828e+00  1.9668532562665941e+00  1.9647437466923896e+00  1.9584020640511355e+00  1.9485495590087716e+00  1.9352203718464676e+00  1.9182843820238982e+00  1.8980620613745851e+00  1.8738669597371600e+00  1.8467310171064661e+00  1.8164086718691281e+00  1.7828234761486321e+00  1.7462599547419630e+00  1.7064789538310352e+00  1.6640842846663326e+00  1.6189597336462047e+00  1.5708501371009105e+00  1.5204817887895492e+00  1.4673894238201886e+00  1.4121210790030740e+00  1.3546761436174215e+00  1.2948898637881434e+00  1.2342535588891754e+00  1.1714491720492708e+00  1.1067306318894234e+00  1.0410552362628696e+00  9.7399027142213934e-01  9.0612047784044714e-01  8.3717914386216929e-01  7.6752034456941332e-01  6.9770765154584169e-01  6.2716973814767296e-01  5.5650382211711968e-01  4.8605820334478889e-01  4.1560421427314903e-01  3.4539809570052438e-01  2.7570893527540402e-01  2.0688822702291573e-01  1.3866437059752276e-01  7.1274797500824522e-02  5.0201254460039962e-03  -5.9626094522369721e-02  -1.2304434138899177e-01  -1.8513272377969472e-01  -2.4525858771541312e-01  -3.0391356848925827e-01  -3.6080019753126774e-01  -4.1532593283529506e-01  -4.6754607537853066e-01  -5.1802968322103338e-01  -5.6597546957037503e-01  -6.1174499780739777e-01  -6.5486244711458452e-01  -6.9552129920458139e-01  -7.3377684728165171e-01  -7.6936412685101252e-01  -8.0232122809039952e-01  -8.3331120490347932e-01  -8.6026407743739886e-01  -8.8551895970517414e-01  -9.0795309934118273e-01  -9.2783902388516692e-01  -9.4497938159254269e-01  -9.5958060450974114e-01  -9.7206081758333984e-01  -9.8161111943017076e-01  -9.8888069168500614e-01  -9.9374564315891500e-01  -9.9648743154423258e-01  -9.9702983688960423e-01  -9.9552614715774768e-01  -9.9227003090279842e-01  -9.8681826618994872e-01  -9.7984688663848929e-01  -9.7128843915113949e-01  -9.6047768437164394e-01  -9.5014970404766430e-01  -9.3686439388956821e-01  -9.2317166631081105e-01  -9.0856135294676554e-01  5.3996073058710126e-01  2.7004878045434255e-01  9.4688340486845501e-01  9.0591179725921056e-01  4.3343790652216557e-01  -2.3131493828919310e-04  -5.2411172008632323e-01  8.8587038216017197e-02  -1.1874552340250122e-01  -2.8692949226999154e-01  7.1344432814023828e-01  1.6819174039810178e-01  7.5146896299782706e-01  2.3576643986567433e-01  -6.0302319182998165e-01  1.3188185015032541e+00  1.2696824104256355e+00  -1.3583832414176475e-01  -2.8162408722530474e-01  1.2100094181922223e+00  -3.4428206381840337e-01  -5.5376667404821678e-01  -2.4923248547785151e-01  -3.9298380365878044e-01  -5.9995900682316206e-01  4.3175150722498001e-01  7.9037915356444932e-01  1.4685286086910079e-01  -3.1316124227750497e-01  1.6344166996743612e+00  -1.3875219683365383e-01  -4.2664379112752732e-01  9.6028151597995814e-01  1.6216097931516860e+00  -4.9047487966241010e-01  1.5155895308561398e+00  -4.6433012952563402e-01  -3.8269669250974730e-01  1.2573745777373384e+00  -5.8118468880909024e-01  -6.2821841818599100e-01  -6.2808286540179903e-01  -5.3466179335211150e-01  -3.7909393037205097e-01  -4.4979452894545768e-01  -6.6672405542312563e-01  4.2846176943559278e-01  -1.0916597896687796e-01  3.4041009177235299e-01  9.6256703919394593e-01  -4.7531007593445618e-01  -5.6156846777872982e-01  1.8259669199042727e+00  1.1930232719863283e+00  7.7948700838078422e-01  -2.0648047704794106e-01  -5.5192394669464295e-01  5.7584592140930335e-01  -7.9609856562915648e-01  -8.0392576692849937e-01  -7.3883002193636615e-01  1.8091597968037503e+00  -6.2952105179748641e-01  -6.8381672270672611e-01  -6.3830028958930851e-01  -5.4427743597690126e-01  -7.1639532780097870e-01  5.9208424218155642e-02  1.5744148075394111e+00  7.2179579203574240e-01  6.5753633973491166e-01  -4.2122324693533136e-01  -6.1155000090793488e-01  -5.7293291501258659e-01  -4.4966453898667536e-01  -4.4595813666567408e-01  -4.1649239073322863e-01  -3.9853306660086679e-01  -8.2470617271810398e-01  6.6318190962958407e-02  1.8017997014713605e+00  5.1614985738193153e-01  -5.6816020885355423e-01  -5.0312474812365404e-01  -7.0206629481780913e-01  -9.2382231507684287e-01  1.4832191966381056e+00  -4.6005857291711316e-01  7.2998714710417534e-01  1.2984303866260756e+00  -5.1354858664412006e-01  5.0273313722397217e-01  4.2588676266431230e-01  6.8009239318468506e-01  8.4827543598011181e-03  1.1175590426267414e+00  9.6568460041861115e-01  -4.1155118414543301e-01  8.0785554275955251e-01  1.1588775687747190e+00  8.3176489812477072e-01  -9.2598318233350851e-01  -5.2658969298202418e-01  2.7223771797915637e-02  3.9951023883886544e-01  1.0151811419506988e-02  -5.7044043414991619e-01  7.1837543847612917e-01  -6.6305878111927352e-01  -4.7308094259724898e-01  1.3546453102718323e-01  4.6180165208796686e-01  9.4294956868365087e-01  -5.8020375640297833e-03  3.2220724522358968e-01  1.8963775511439853e+00  4.7622855922551049e-01  2.2024514714204585e-01  -2.4811673560040725e-02  -6.4010441972824983e-01  1.6851277563015072e+00  2.5435170273535546e-01  -8.2204655350798517e-01  4.4170797836860104e-01  9.8104293200695092e-01  -8.4962348970438784e-01  -4.9125002039273447e-01  -8.0806619828835013e-01  -1.9637991332430307e-01  1.4873269950569767e+00  9.5477132960415056e-01  -4.2608533364636136e-01  -4.3966427173275785e-01  -7.3375039041840129e-01  9.7561219991728909e-01  -3.0352194043213337e-01  -8.6876625682884445e-01  1.3633790345671886e+00  -5.6221115574523806e-01  -6.5289042191302582e-01  5.0945905089348942e-01  -9.0455315509163092e-01  -8.1770361396008051e-01  1.2364921926292307e+00  1.0867732384131004e+00  -5.8770706132537331e-01  4.9790750731407279e-01  -1.1768971491718544e-02  -8.9731127052016935e-01  -4.2735839241553075e-01  7.5047367100335338e-01  9.3036650391185083e-01  1.7026240136560784e+00  1.8998788600131864e+00  1.2669900234440459e+00  3.6532073625506867e-01  1.9841646559764514e-01  -4.8879289515426874e-02  4.8890076511633218e-01  -2.0253242343339942e-01  -6.1986533455248782e-01  -5.9660287287196423e-01  -2.3949713881438606e-01  6.4697667769818668e-01  -4.4744032136957240e-01  -4.8492814299402459e-01  -3.0383151130179809e-01  -9.1250647301009333e-02  1.5041553693758287e+00  5.3696769076381601e-01  5.3682646219580665e-01  -9.9058227674083488e-01  1.4808337471157553e+00  -4.1174180660477344e-01  -4.4901100509406067e-01  3.9182835118417247e-01  1.8674173415588669e+00  5.7698413877853405e-01  -2.7907447990836207e-02  1.6725349577981090e+00  -8.0117617030120758e-01  7.8065876507311172e-01  6.7925641212864640e-01  -4.9880348593990653e-01  7.3040136771436581e-01  8.4229398748117390e-01  1.0746876952094959e+00  -1.0731746647918519e+00  -1.0980347924016554e-01  -7.1920488032668883e-01  -1.0525756179965562e-01  4.8707012992245585e-01  1.0217853546360818e+00  -7.9428884049262416e-01  1.2908064222583695e+00  5.7404390299117369e-01  1.6510865081024897e+00  -6.9121582372519907e-01  2.4000394077917667e-01  -1.4938180314077863e-02  1.4338932252280934e-01  -3.4100526092532946e-01  -8.8953982057351170e-03  9.4200989140872737e-01  3.7589072890867131e-01  -4.1154678825847707e-01  -9.4132971958527067e-01  -9.8761433075145333e-01  5.7431245385983576e-01  6.1316969002239741e-01  -4.3056757692927955e-01  -7.6589261036104339e-01  -5.4408798221697519e-01  -5.4801258201960723e-01  3.7147345401678328e-01  1.4661769811782912e+00  -4.3115436173547972e-01  7.9017538784378061e-01  -4.3104945373188958e-02  1.4095925113175261e+00  7.0461835637350656e-01  -5.7395920231165876e-01  -5.4492931312785764e-01  8.1630472226023032e-01  -5.5573716439805010e-01  1.7533939468433581e+00  1.2973488964195878e-01  -9.9589294020661445e-01  -4.6294882138804144e-01  -2.0538261463020607e-01  1.9526313920466096e-01  -4.5459127999902604e-01  2.6575600621438733e-01  1.7545949073610116e-02  1.1534284028147281e+00  1.1194933252034738e+00  1.8729217884154467e-01  6.7717911419222077e-01  9.8886230455214785e-01  7.6677654901867287e-02  1.5358120283682115e+00  1.3106471061417435e-01  1.8409520090516192e+00  7.0700561022699582e-01  -4.1094585209375462e-01  2.8457104162062918e-01  -6.5556131260315786e-01  2.8576544608411125e-01  1.4773846262874850e+00  -4.8126225254573463e-01  1.6593669845412422e+00  1.1369569936083090e+00  1.6165416397349516e-01  -4.7499892389987297e-01  -7.2302911015885596e-01  1.1219768240230075e+00  -6.2945124076678438e-01  -4.1165481677794563e-01  9.1172738433076245e-02  4.4165357080284184e-01  -3.2298681518109593e-02  1.8979562427787966e-01  8.5837868048843136e-01  6.7436192909249265e-02  7.6594871001768394e-01  8.3031568212715345e-01  -3.3595063201256781e-01  1.9337014707088160e+00  -6.5587124531517282e-01  9.0486319974759466e-01  -9.0403146886106983e-02  -3.0771194296947435e-01  1.0132232893943886e-01  -3.5282756319905945e-01  6.2134941910398733e-01  4.7276605263448040e-01  -2.5581362812712788e-01  -1.8956699412184758e-01  7.4025328463735618e-01  1.3472637856759599e+00  -4.2087620160283684e-01  1.8046808426961376e+00  6.8215896519166153e-02  -5.0220854131777015e-01  2.4309427851807168e-02  5.7582524599502583e-01  1.0116306393328178e+00  1.8519639603890506e-01  -4.1125011704199999e-01  9.8802487821818386e-01  4.7686821438151317e-01  3.9322421122352708e-01  7.8299278480817514e-01  3.9195369046572776e-01  -5.6019070053209186e-01  9.6975097441260483e-01  1.0676486766543700e+00  -5.4262310636210098e-01  4.1648994304155657e-01  1.7465805277064284e+00  -4.3716027766641441e-01  -8.7428407725774004e-01  -9.4950296820224778e-01  1.0648267889413543e+00  -6.5029982895627469e-01  1.3888951054246736e+00  6.5264124572859183e-01  -6.1293154966847552e-01  -5.3774969558425600e-01  -9.1130959148256185e-01  -7.3257528508019099e-01  8.0391409085017532e-02  -8.5373163245500161e-01  -9.2181425045224707e-01  6.1858954984573000e-01  -1.8917602714472548e-01  1.7988431750107581e-01  1.0719336309746581e+00  8.9660563225042067e-01  1.2589527273900638e+00  -1.8101965009000889e-01  1.2275896757285099e+00  1.4024247107522181e+00  4.8253419883227916e-01  4.7130730627995776e-01  5.1307695828248334e-01  3.3679350105731160e-01  -6.3345864899888893e-01  -6.0363028254643381e-01  1.9254022186911353e+00  -2.6913839871435513e-01  -3.6534630340764196e-01  6.4615801604301004e-01  -4.2120812946141485e-02  2.1414900663471867e-03  -1.4357142005775125e-01  -6.7728857205331749e-01 