<?xml version="1.0"?>
<VTKFile type="UnstructuredGrid"  version="0.1"  >
<UnstructuredGrid>
<Piece  NumberOfPoints="6146" NumberOfCells="11816">
<Points>
<DataArray  type="Float64"  NumberOfComponents="3"  format="ascii">0 0 0  0 0.41 0  2.2 0 0  2.2 0.41 0  0.2 0.25 0  0.25 0.2 0  0.2 0.15 0  0.15 0.2 0  0 0.4000000000000008 0  0 0.3900000000000259 0  0 0.3800000000000606 0  0 0.3700000000000953 0  0 0.3600000000001082 0  0 0.3500000000001241 0  0 0.3400000000001558 0  0 0.3300000000001905 0  0 0.3200000000002133 0  0 0.3100000000002381 0  0 0.3000000000002728 0  0 0.2900000000003075 0  0 0.2800000000003204 0  0 0.2700000000003551 0  0 0.2600000000003897 0  0 0.2500000000004243 0  0 0.2400000000004419 0  0 0.2300000000004503 0  0 0.2200000000004849 0  0 0.2100000000005195 0  0 0.2000000000005203 0  0 0.1900000000004874 0  0 0.1800000000004544 0  0 0.1700000000004476 0  0 0.1600000000004316 0  0 0.1500000000003986 0  0 0.1400000000003795 0  0 0.1300000000003759 0  0 0.1200000000003428 0  0 0.1100000000003098 0  0 0.1000000000002768 0  0 0.09000000000024383 0  0 0.08000000000021068 0  0 0.07000000000020096 0  0 0.0600000000001879 0  0 0.05000000000015475 0  0 0.04000000000012166 0  0 0.03000000000008857 0  0 0.02000000000005536 0  0 0.01000000000002221 0  0.01007679662828254 0 0  0.02056899213655081 0 0  0.03149370747042262 0 0  0.04286877787651972 0 0  0.05471276293192491 0 0  0.06704499828634325 0 0  0.07988560641938237 0 0  0.09325554633647967 0 0  0.1071766410311884 0 0  0.1216716067611488 0 0  0.1367641016067741 0 0  0.152478764481749 0 0  0.1688412308389146 0 0  0.1858782107385222 0 0  0.2036175120042742 0 0  0.2220880805924512 0 0  0.2413200720246992 0 0  0.2613448680153237 0 0  0.2821951505493904 0 0  0.303904948281349 0 0  0.3265096961752511 0 0  0.350046282509153 0 0  0.3745531279755512 0 0  0.4000702232727447 0 0  0.4266392157867663 0 0  0.4543034693483497 0 0  0.4831081324012234 0 0  0.5131002188568834 0 0  0.54432867931559 0 0  0.5768444722696365 0 0  0.6107006746708104 0 0  0.6459525479050182 0 0  0.682657603414822 0 0  0.7208757746968344 0 0  0.7606694182609572 0 0  0.8021034816821726 0 0  0.8452455957902169 0 0  0.8901661663799046 0 0  0.9369385072466508 0 0  0.9856389585079668 0 0  1.036346998189458 0 0  1.089145397956563 0 0  1.144120312199143 0 0  1.201361473554013 0 0  1.260962300595225 0 0  1.323020078687202 0 0  1.387636074977323 0 0  1.45491573887162 0 0  1.524968897456634 0 0  1.597909863440663 0 0  1.673857723466354 0 0  1.752936382158491 0 0  1.835274909595432 0 0  1.921007725838496 0 0  2.010274709627921 0 0  2.103221572060948 0 0  2.2 0.08199999999981657 0  2.2 0.1639999999995688 0  2.2 0.2459999999995603 0  2.2 0.327999999999785 0  2.103221572061646 0.41 0  2.010274709629372 0.41 0  1.921007725840496 0.41 0  1.835274909597994 0.41 0  1.752936382161568 0.41 0  1.673857723469928 0.41 0  1.597909863444748 0.41 0  1.524968897461176 0.41 0  1.454915738876575 0.41 0  1.387636074982656 0.41 0  1.323020078692824 0.41 0  1.260962300601091 0.41 0  1.201361473560091 0.41 0  1.144120312205409 0.41 0  1.089145397962884 0.41 0  1.036346998195403 0.41 0  0.9856389585135474 0.41 0  0.9369385072518699 0.41 0  0.8901661663847817 0.41 0  0.845245595794772 0.41 0  0.802103481686421 0.41 0  0.760669418264917 0.41 0  0.7208757747005239 0.41 0  0.6826576034182545 0.41 0  0.6459525479082096 0.41 0  0.6107006746737729 0.41 0  0.5768444722723829 0.41 0  0.5443286793181334 0.41 0  0.5131002188592353 0.41 0  0.483108132403395 0.41 0  0.4543034693503529 0.41 0  0.4266392157886099 0.41 0  0.4000702232744378 0.41 0  0.3745531279771039 0.41 0  0.3500462825105728 0.41 0  0.3265096961765468 0.41 0  0.3039049482825278 0.41 0  0.2821951505504596 0.41 0  0.2613448680163102 0.41 0  0.2413200720256172 0.41 0  0.2220880805933043 0.41 0  0.2036175120050649 0.41 0  0.1858782107392414 0.41 0  0.1688412308395617 0.41 0  0.1524787644823298 0.41 0  0.1367641016072927 0.41 0  0.1216716067615997 0.41 0  0.1071766410315749 0.41 0  0.09325554633680744 0.41 0  0.07988560641965403 0.41 0  0.06704499828656418 0.41 0  0.05471276293210092 0.41 0  0.04286877787665544 0.41 0  0.03149370747052016 0.41 0  0.02056899213661323 0.41 0  0.01007679662831285 0.41 0  0.2009941093832422 0.2499901164885035 0  0.2019878257548352 0.2499604698613656 0  0.2029807562584742 0.2499110718390977 0  0.2039725083485626 0.2498419419507366 0  0.2049626899453778 0.2497531075261239 0  0.2059509095900689 0.2496446036851018 0  0.2069367765994233 0.2495164733236293 0  0.2079199012203332 0.2493687670968211 0  0.208899894783849 0.2492015433989262 0  0.209876369858873 0.2490148683402368 0  0.2108489404052936 0.2488088157209575 0  0.2118172219266183 0.248583467002027 0  0.2127808316219855 0.248338911272912 0  0.2137393885375067 0.2480752452163837 0  0.2146925137168532 0.2477925730703012 0  0.2156398303510693 0.247491006586403 0  0.2165809639275547 0.2471706649861239 0  0.2175155423781385 0.2468316749134561 0  0.2184431962261471 0.2464741703848905 0  0.2193635587324768 0.2460982927364335 0  0.2202762660405913 0.2457041905677276 0  0.2211809573203641 0.2452920196833053 0  0.2220772749107273 0.2448619430309942 0  0.2229648644610677 0.2444141306374986 0  0.2238433750713457 0.2439487595411649 0  0.2247124594307593 0.2434660137220228 0  0.2255717739550953 0.2429660840290282 0  0.2264209789225549 0.2424491681046155 0  0.227259738608055 0.2419154703065648 0  0.2280877214159585 0.2413652016272072 0  0.2289046000111568 0.2407985796100187 0  0.2297100514485014 0.2402158282636004 0  0.2305037573004443 0.2396171779731418 0  0.2312854037829426 0.2390028654093291 0  0.2320546818795267 0.2383731334347658 0  0.2328112874634348 0.2377282310079845 0  0.2335549214178666 0.2370684130850081 0  0.2342852897542382 0.2363939405185524 0  0.23500210372839 0.2357050799549172 0  0.2357050799547543 0.2350021037285561 0  0.236393940518396 0.2342852897544042 0  0.2370684130848552 0.2335549214180355 0  0.2377282310078377 0.2328112874636036 0  0.2383731334346237 0.2320546818796969 0  0.2390028654091947 0.2312854037831102 0  0.2396171779730177 0.2305037573006055 0  0.2402158282634863 0.2297100514486559 0  0.2407985796099098 0.2289046000113105 0  0.2413652016271038 0.2280877214161108 0  0.2419154703064672 0.2272597386082051 0  0.2424491681045289 0.2264209789226942 0  0.2429660840289533 0.2255717739552211 0  0.2434660137219522 0.2247124594308835 0  0.2439487595410967 0.2238433750714713 0  0.2444141306374335 0.2229648644611936 0  0.2448619430309386 0.2220772749108404 0  0.2452920196832561 0.2211809573204692 0  0.2457041905676833 0.2202762660406911 0  0.2460982927363924 0.2193635587325747 0  0.246474170384854 0.2184431962262392 0  0.2468316749134214 0.2175155423782314 0  0.2471706649860917 0.216580963927646 0  0.2474910065863757 0.215639830351152 0  0.2477925730702761 0.2146925137169349 0  0.2480752452163603 0.2137393885375889 0  0.2483389112728914 0.2127808316220633 0  0.248583467002012 0.2118172219266803 0  0.2488088157209458 0.2108489404053462 0  0.2490148683402261 0.2098763698589259 0  0.249201543398917 0.2088998947838999 0  0.2493687670968142 0.2079199012203759 0  0.2495164733236233 0.2069367765994661 0  0.2496446036850975 0.205950909590105 0  0.2497531075261207 0.2049626899454101 0  0.2498419419507343 0.2039725083485922 0  0.2499110718390968 0.2029807562584889 0  0.2499604698613655 0.2019878257548365 0  0.2499901164885035 0.2009941093832422 0  0.2499901164885035 0.1990058906167579 0  0.2499604698613656 0.1980121742451648 0  0.2499110718390977 0.1970192437415259 0  0.2498419419507366 0.1960274916514374 0  0.2497531075261239 0.1950373100546222 0  0.2496446036851018 0.1940490904099311 0  0.2495164733236293 0.1930632234005767 0  0.2493687670968211 0.1920800987796668 0  0.2492015433989262 0.191100105216151 0  0.2490148683402368 0.190123630141127 0  0.2488088157209575 0.1891510595947065 0  0.248583467002027 0.1881827780733817 0  0.248338911272912 0.1872191683780146 0  0.2480752452163837 0.1862606114624933 0  0.2477925730703012 0.1853074862831468 0  0.247491006586403 0.1843601696489307 0  0.2471706649861239 0.1834190360724454 0  0.2468316749134561 0.1824844576218615 0  0.2464741703848905 0.181556803773853 0  0.2460982927364335 0.1806364412675232 0  0.2457041905677276 0.1797237339594087 0  0.2452920196833053 0.1788190426796359 0  0.2448619430309942 0.1779227250892727 0  0.2444141306374986 0.1770351355389324 0  0.2439487595411649 0.1761566249286543 0  0.2434660137220228 0.1752875405692407 0  0.2429660840290282 0.1744282260449047 0  0.2424491681046155 0.1735790210774451 0  0.2419154703065648 0.172740261391945 0  0.2413652016272072 0.1719122785840415 0  0.2407985796100187 0.1710953999888432 0  0.2402158282636004 0.1702899485514986 0  0.2396171779731418 0.1694962426995557 0  0.2390028654093291 0.1687145962170574 0  0.2383731334347658 0.1679453181204733 0  0.2377282310079845 0.1671887125365652 0  0.2370684130850081 0.1664450785821334 0  0.2363939405185524 0.1657147102457618 0  0.2357050799549172 0.16499789627161 0  0.2350021037285561 0.1642949200452457 0  0.2342852897544042 0.1636060594816041 0  0.2335549214180355 0.1629315869151449 0  0.2328112874636036 0.1622717689921623 0  0.2320546818796969 0.1616268665653763 0  0.2312854037831102 0.1609971345908053 0  0.2305037573006055 0.1603828220269823 0  0.2297100514486559 0.1597841717365137 0  0.2289046000113105 0.1592014203900902 0  0.2280877214161108 0.1586347983728962 0  0.2272597386082051 0.1580845296935329 0  0.2264209789226942 0.1575508318954712 0  0.2255717739552211 0.1570339159710467 0  0.2247124594308835 0.1565339862780478 0  0.2238433750714713 0.1560512404589033 0  0.2229648644611936 0.1555858693625665 0  0.2220772749108404 0.1551380569690615 0  0.2211809573204692 0.1547079803167439 0  0.2202762660406911 0.1542958094323167 0  0.2193635587325747 0.1539017072636076 0  0.2184431962262392 0.153525829615146 0  0.2175155423782314 0.1531683250865786 0  0.216580963927646 0.1528293350139083 0  0.215639830351152 0.1525089934136243 0  0.2146925137169349 0.1522074269297239 
[...]
<PointData  Scalars="f_19"> 
<DataArray  type="Float64"  Name="f_19"  format="ascii">5.3167690859596595e-01  4.4900578610951980e-01  0.0000000000000000e+00  0.0000000000000000e+00  -1.0886743501497340e+00  -4.4729960934733604e-01  -8.4070685309112170e-01  1.9721384955685970e+00  4.4889433910547122e-01  4.4945574286027856e-01  4.5139394899858137e-01  4.5545820992353658e-01  4.6218108323499085e-01  4.7201930310050416e-01  4.8531712237223912e-01  5.0225706486652888e-01  5.2285903847177739e-01  5.4697180080268215e-01  5.7426492556117592e-01  6.0428954789045586e-01  6.3599640261464707e-01  6.6859823732865875e-01  7.0113935709138142e-01  7.3184253290212320e-01  7.5963800606475052e-01  7.8352787246972355e-01  8.0171341322364065e-01  8.1350660422903276e-01  8.1827123047104844e-01  8.1661381574284442e-01  8.0788987189688388e-01  7.9336345332017300e-01  7.7319751964713701e-01  7.4942318773508787e-01  7.2326335756308135e-01  6.9561077949395422e-01  6.6814063057154494e-01  6.4189937528575070e-01  6.1752307446010857e-01  5.9585490644790351e-01  5.7743835479000472e-01  5.6229010291398041e-01  5.5059356526840242e-01  5.4214992383263361e-01  5.3647681536516045e-01  5.3331961239870618e-01  5.3184782914862772e-01  5.3162764243689453e-01  5.3115407426144245e-01  5.3055200361654575e-01  5.2967239917214437e-01  5.2834207375817577e-01  5.2642035040225765e-01  5.2345088094987369e-01  5.1922683235983225e-01  5.1286149793712721e-01  5.0414424229385590e-01  4.9089762729569525e-01  4.7313582894735323e-01  4.4905841125489704e-01  4.1908217951860571e-01  3.8276866076696314e-01  3.4101247706449234e-01  2.9626718024240983e-01  2.5189983727972903e-01  2.0996557652382550e-01  1.6971431511659110e-01  1.3911591058250283e-01  1.0891410532739133e-01  8.5248345420005700e-02  6.0134355089547217e-02  3.7876959565573631e-02  1.9282604345771295e-02  2.1052908893232625e-02  4.9393711639883972e-02  1.1316973062401199e-01  1.9834516910716457e-01  2.8670092919140838e-01  3.4192106179212584e-01  3.7212577883067033e-01  3.5196287772495494e-01  3.0543968613126310e-01  2.4459615230966830e-01  1.8097746835379802e-01  9.7200315589648784e-02  4.4020203752957877e-02  8.3356981689866508e-02  2.0513434395083091e-01  2.9254960929896695e-01  2.9453315739015989e-01  2.0869560652628497e-01  7.3589796990514753e-02  -4.0441391483788697e-02  -6.1088534342872217e-03  1.5701797989720101e-01  2.5729809761054673e-01  1.2024851906102899e-01  -5.3215059913193493e-03  -7.8718660045368982e-02  3.4308314648380758e-02  1.3474615597735431e-01  7.6325200844842081e-02  -6.6487552777574593e-02  -1.1790003721550214e-01  0.0000000000000000e+00  0.0000000000000000e+00  0.0000000000000000e+00  0.0000000000000000e+00  1.0137787956778113e-01  1.2427323191650029e-01  -3.4072033246751406e-02  -6.3233259021735821e-02  5.3657347497813992e-02  1.7182698860252413e-01  1.3580539067164094e-01  2.2809826424133265e-02  -5.9185744602645543e-02  5.5952999012480645e-02  2.2541311548954943e-01  2.7696096305054252e-01  2.0560589449434963e-01  5.6252520518861759e-02  -2.0900856587159018e-02  6.0747908525129436e-02  1.7268803452027476e-01  2.4369316676837638e-01  3.0161560458541542e-01  3.1741816072800472e-01  2.7493139449530046e-01  1.9998938296349217e-01  1.3447809847838280e-01  9.6937424630031091e-02  8.1374450756460492e-02  8.7110221601994747e-02  1.3443931366760484e-01  2.0236774368969451e-01  2.6459287095002859e-01  3.0059878480891877e-01  3.0966013612608884e-01  2.8871938169818384e-01  2.5725221433603396e-01  2.1417509828273171e-01  1.7439538972686724e-01  1.4448478997367067e-01  1.2416095565899257e-01  1.2153825984142044e-01  1.3214749940018375e-01  1.5424567075298029e-01  1.8377801305142577e-01  2.2073789516147660e-01  2.5781634746614202e-01  2.9445123798594958e-01  3.2711919016625512e-01  3.5587277783391075e-01  3.7964731214862851e-01  3.9895352242974080e-01  4.1353339419828400e-01  4.2496871549944509e-01  4.3338429782869331e-01  4.3932972629816058e-01  4.4346222167060467e-01  4.4610672466252577e-01  4.4765507801293425e-01  4.4848416637934685e-01  -1.0778428336516683e+00  -1.0664257389523821e+00  -1.0543536565608085e+00  -1.0417017220007605e+00  -1.0284929377033645e+00  -1.0151017444120325e+00  -1.0011304608567966e+00  -9.8711233940092258e-01  -9.7302163119257801e-01  -9.5842723613450420e-01  -9.4500099233344526e-01  -9.3065433248025442e-01  -9.1686111033160855e-01  -9.0344217785122916e-01  -8.9030583465781454e-01  -8.7722789264219370e-01  -8.6483736115439291e-01  -8.5262983904903089e-01  -8.4094518536385854e-01  -8.2965119379348329e-01  -8.1892027787470234e-01  -8.0852564097683155e-01  -7.9865904710949287e-01  -7.8923726720370835e-01  -7.8030750232893420e-01  -7.7187490281815963e-01  -7.6389609798270153e-01  -7.5640155422755062e-01  -7.4931037962275338e-01  -7.4263470121553166e-01  -7.3630053369079806e-01  -7.3033462298216134e-01  -7.2465896254334494e-01  -7.1927083085532784e-01  -7.1408276571148521e-01  -7.0907873346102412e-01  -7.0414935917364008e-01  -6.9930466860253471e-01  -6.9448592882369542e-01  -6.8962068244693353e-01  -6.8470040853242864e-01  -6.7964159163646576e-01  -6.7444672867771838e-01  -6.6904300560033259e-01  -6.6344458617545077e-01  -6.5757162102964628e-01  -6.5147272277802393e-01  -6.4507786775040199e-01  -6.3844852961770204e-01  -6.3153039060352012e-01  -6.2440162699086399e-01  -6.1699011273670967e-01  -6.0940933886863569e-01  -6.0160474124865793e-01  -5.9368963947055842e-01  -5.8562124929464132e-01  -5.7752272351881240e-01  -5.6934141038241570e-01  -5.6119197680009569e-01  -5.5305255788598950e-01  -5.4505815401064228e-01  -5.3714444898476621e-01  -5.2941991523656651e-01  -5.2197278624212573e-01  -5.1477246148628231e-01  -5.0782409408185947e-01  -5.0116888273250604e-01  -4.9479562977378028e-01  -4.8871756268990152e-01  -4.8311138377268525e-01  -4.7780200034771619e-01  -4.7292871680431309e-01  -4.6828900857217731e-01  -4.6413445312771728e-01  -4.6015338869022976e-01  -4.5652783502955402e-01  -4.5323274826417181e-01  -4.5016063960168073e-01  -4.4462439515514779e-01  -4.4212402280410773e-01  -4.3978751790898724e-01  -4.3752558232556737e-01  -4.3532120040846950e-01  -4.3317258144975540e-01  -4.3102862355973298e-01  -4.2886235400333289e-01  -4.2667680942998742e-01  -4.2443095240920536e-01  -4.2212535180727850e-01  -4.1973347119140975e-01  -4.1726694098836614e-01  -4.1471200752518900e-01  -4.1206252713814112e-01  -4.0935644252271319e-01  -4.0654864795686185e-01  -4.0370697744764600e-01  -4.0080230604864414e-01  -3.9786049613379199e-01  -3.9490847739044715e-01  -3.9194745588502194e-01  -3.8901548840122918e-01  -3.8611702515539631e-01  -3.8332172511726587e-01  -3.8061998283519127e-01  -3.7807189919162693e-01  -3.7570486773075590e-01  -3.7352971923637807e-01  -3.7162463679459540e-01  -3.7000546384782651e-01  -3.6872810806642331e-01  -3.6785136205375035e-01  -3.6736729062618168e-01  -3.6734778649627176e-01  -3.6780826791527033e-01  -3.6876209497517026e-01  -3.7026576702380304e-01  -3.7232015423433551e-01  -3.7492102247946019e-01  -3.7807215485482459e-01  -3.8174500559151509e-01  -3.8596100044340481e-01  -3.9070680882211278e-01  -3.9596855987657753e-01  -4.0169806758545756e-01  -4.0792440646170891e-01  -4.1458569258864036e-01  -4.2175715100772165e-01  -4.2936579601990210e-01  -4.3736850608923444e-01  -4.4584007649920404e-01  -4.5494142879712135e-01  -4.6441142195931517e-01  -4.7428254370400053e-01  -4.8479086374278269e-01  -4.9588139732284559e-01  -5.0740807084229889e-01  -5.1937006988073087e-01  -5.3205913519894210e-01  -5.4522736635815539e-01  -5.5898350526028806e-01  -5.7341084996644864e-01  -5.8818106058121222e-01  -6.0331147020196785e-01  -6.1911963114635271e-01  -6.3544679591584741e-01  -6.5197169664786991e-01  -6.6899690463617290e-01  -6.8618402839362203e-01  -7.0362623488580056e-01  -7.2111104859293818e-01  -7.3879128680837547e-01  -7.5647284849776497e-01  -7.7402833099797497e-01  -7.9127966029851748e-01  -8.0820672325291276e-01  -8.2466972376440739e-01  -8.5606031323175624e-01  -8.7070003701270637e-01  -8.8434947335363168e-01  -8.9659800121664313e-01  -9.0797614315360187e-01  -9.1849825676078667e-01  -9.2720463253064422e-01  -9.3438339931920411e-01  -9.3991911606379808e-01  -9.4380347375872120e-01  -9.4587100748723929e-01  -9.4588501970965433e-01  -9.4389824099835162e-01  -9.3964821791147024e-01  -9.3322106487402345e-01  -9.2440127216199230e-01  -9.1333594955114872e-01  -8.9966236080658546e-01  -8.8376827234767719e-01  -8.6532466581890366e-01  -8.4441236552706289e-01  -8.2087447931509938e-01  -7.9435088247254548e-01  -7.6567577278950660e-01  -7.3447697920911126e-01  -7.0043202284848671e-01  -6.6474952485890504e-01  -6.2532041230784263e-01  -5.8409582069684407e-01  -5.4055409441284386e-01  -4.9460179570655854e-01  -4.4617059527139041e-01  -3.9589251332517356e-01  -3.4339779980929541e-01  -2.8867852192939647e-01  -2.3236766824170166e-01  -1.7397254808178950e-01  -1.1434994393675860e-01  -5.2968659304496325e-02  1.0169522782044933e-02  7.4429795268957599e-02  1.3957188217830441e-01  2.0606522576043618e-01  2.7347769693851781e-01  3.4134725686258199e-01  4.0997409470582669e-01  4.7886728464096967e-01  5.4794329327391678e-01  6.1734536809993257e-01  6.8664768124577225e-01  7.5569502827490964e-01  8.2422157278254804e-01  8.9234404874319206e-01  9.5953671405427221e-01  1.0260015300555878e+00  1.0914696344083246e+00  1.1556981710737684e+00  1.2180913264881557e+00  1.2795471117278037e+00  1.3388776940270657e+00  1.3961963572288940e+00  1.4519079157998040e+00  1.5054124965021949e+00  1.5564855901922907e+00  1.6050305108543721e+00  1.6512594743852451e+00  1.6949240113857631e+00  1.7353749075844795e+00  1.7732685815524527e+00  1.8080227602538967e+00  1.8396997130786112e+00  1.8681810011050075e+00  1.8934773272286989e+00  1.9150592191542399e+00  1.9334849587254495e+00  1.9484092321491853e+00  1.9603567170545093e+00  1.9679875845247503e+00  1.9730974658496141e+00  1.9703456170041012e+00  1.9640853104224854e+00  1.9542976491426283e+00  1.9408825109265659e+00  1.9241110888317863e+00  1.9033058322318590e+00  1.8795097303581383e+00  1.8524383466876071e+00  1.8220263471185894e+00  1.7885336851496312e+00  1.7517116609857593e+00  1.7121763569481241e+00  1.6697704660175889e+00  1.6242582445975473e+00  1.5763278706911634e+00  1.5255175437039215e+00  1.4723934691320433e+00  1.4169128298443421e+00  1.3588535035190814e+00  1.2998510255629385e+00  1.2384882997489577e+00  1.1749540343664442e+00  1.1102582350227912e+00  1.0439762983805165e+00  9.7665683234058920e-01  9.0803565484887994e-01  8.3848626856038433e-01  7.6856577911866386e-01  6.9757637767411973e-01  6.2629211762303261e-01  5.5494765600202689e-01  4.8331715317415891e-01  4.1168934445466632e-01  3.4032412222618380e-01  2.6952673722753234e-01  1.9904943180209120e-01  1.2916989514136237e-01  6.0138988292488101e-02  -7.5706452506203673e-03  -7.4331497517493322e-02  -1.4002310638086987e-01  -2.0403374810886271e-01  -2.6684277818068430e-01  -3.2811357144794417e-01  -3.8731403053252372e-01  -4.4449146980965665e-01  -5.0015914807525585e-01  -5.5352153576334229e-01  -6.0496350108544250e-01  -6.5396471108868948e-01  -7.0074425301258447e-01  -7.4531247566965053e-01  -7.8741065228517348e-01  -8.2706353962335277e-01  -8.6487270610396427e-01  -8.9888296744911789e-01  -9.3128124652099709e-01  -9.6097711451326262e-01  -9.8825094591173335e-01  -1.0128470261347207e+00  -1.0349933344943918e+00  -1.0550497770223939e+00  -1.0722058345891432e+00  -1.0871115178979782e+00  -1.0995865996490837e+00  -1.1099319854323757e+00  -1.1180009061718377e+00  -1.1239781764755845e+00  -1.1280945159849749e+00  -1.1299070036502226e+00  -1.1300961975447623e+00  -1.1285408737652185e+00  -1.1245757110237329e+00  -1.1209011712525787e+00  -1.1140987098845154e+00  -1.1066942881447790e+00  -1.0981323182448059e+00  5.0111653418205004e-01  1.7533072043575740e-01  9.4068402240050064e-01  9.2249133655700577e-01  5.0043615592174995e-01  -8.4535909826155789e-02  3.3410472401953684e-01  2.1503712986306145e-01  -6.7704392970508745e-02  -8.7044316739922212e-01  7.4473308391114512e-01  2.4769616669243169e-01  7.3062385356771586e-01  1.6924319505186525e-01  -3.7508516646783585e-01  1.3235995491019936e+00  1.2745740746572163e+00  -2.6677732802496695e-01  -4.7531520603511312e-01  1.2145600279607505e+00  -6.9938541837203549e-01  -5.6018063299567278e-01  -1.1692961003151489e-01  -2.0254333521953671e-01  -3.1489537162681380e-01  4.1511814450420687e-01  7.9183043295671018e-01  1.7952046040950459e-01  -2.2550328087219026e-01  1.6421544336490252e+00  -1.8969179777304362e-01  -5.4270587798546521e-01  9.7572697433354505e-01  1.6152342790784786e+00  -6.7419569351038244e-01  1.5390287247264638e+00  -7.1299402809217416e-01  -6.9022227644539658e-01  1.2389975608324817e+00  -3.9027754313502466e-01  -3.6777343385619321e-01  -3.0892991007611553e-01  -4.2019994635000490e-01  -6.6027433463218399e-01  -5.3157619590435168e-01  -5.2730362714521184e-01  4.5066839612704407e-01  -1.0779070170562641e-01  3.2418550457922712e-01  9.6719028966342224e-01  -4.4762339545989399e-01  -3.6400912475519986e-01  1.8277714148820812e+00  1.2355999782089626e+00  7.4616762683931781e-01  -2.0251472355139544e-01  -5.0275723690394503e-01  6.1255233383968033e-01  -6.9775910060850521e-01  -6.1160900478050750e-01  -5.0447906182519764e-01  1.8288406279571590e+00  -7.0997772348690602e-01  -4.2824556979756295e-01  -3.6172755498978104e-01  -5.7902546395767507e-01  -8.8491612300887357e-01  3.2748482071376428e-02  1.5484967716176379e+00  7.6922410991781554e-01  6.3821241509522486e-01  -5.7629143279776973e-01  -3.5474097354997353e-01  -8.1587930406331555e-01  -7.2222030988003982e-01  -5.0536667830979620e-01  -6.9554830449457528e-01  -6.6501789026177749e-01  -9.5292016599994223e-01  6.3448902171681656e-02  1.7866651726938436e+00  4.8336806030166757e-01  -3.7050339198938503e-01  -4.0710486286049874e-01  -9.2110515878510146e-01  -7.8011884212857630e-01  1.5275134894044500e+00  -4.5994431202618408e-01  7.0955119694232816e-01  1.2557933518104287e+00  -7.7699177487928550e-01  4.5555821187287854e-01  3.5966787721809945e-01  7.1306969709402857e-01  4.2636697945518248e-02  1.1284019004878574e+00  9.5626288732692855e-01  -6.2260670656811479e-01  8.2201617254501047e-01  1.1585273153251201e+00  8.2815741128538745e-01  -7.4494256574971496e-01  -3.9245143232404073e-01  -3.8791135898304532e-02  3.5618784030398298e-01  -2.0789919888061691e-02  -5.5327537111993741e-01  7.4237688893474296e-01  -4.0017788011786565e-01  -4.3356659741738746e-01  2.3812904303286024e-02  5.1980649503984000e-01  9.6207718309407708e-01  1.1780800205273183e-01  3.7405653614928558e-01  1.9057879667813877e+00  4.2884715657976558e-01  -7.1370007592024484e-02  1.1438457919308281e-01  -3.7630405573968162e-01  1.7233274022771861e+00  3.5437083469046710e-01  -5.9816432972276645e-01  4.9046566422266857e-01  9.7641080663995627e-01  -7.8109718685630014e-01  -4.9082943959183328e-01  -8.7039502380667533e-01  -4.2685437566961464e-02  1.4906916009431728e+00  9.0476893592391838e-01  -5.7727224076492867e-01  -5.3045659247494592e-01  -4.8552440430233335e-01  1.0349132346093008e+00  -3.2087110523466661e-01  -1.0378611191218841e+00  1.3674306652797221e+00  -2.8934144168960596e-01  -8.9585532119341016e-01  4.7099435510034626e-01  -1.0043932856057221e+00  -1.0180567471812978e+00  1.2547767569878008e+00  1.0936029814257260e+00  -8.4375586130137170e-01  5.4261191501125128e-01  1.1408101515309887e-02  -6.8961167286112757e-01  -6.6521082277559129e-01  7.4180431360107801e-01  9.4546499306162657e-01  1.6714040216294193e+00  1.8936473021858720e+00  1.3248946287683145e+00  2.9361303066093480e-01  1.3175845442846856e-01  -1.3649775598173813e-01  5.0713901265694006e-01  -3.6151254299172147e-01  -3.6712422306915071e-01  -3.6739526588153215e-01  -3.6140398133149709e-01  6.1655007334024037e-01  -7.2190249732990130e-01  -7.5523909957751867e-01  -2.7806577567557117e-01  -4.0283010575427541e-01  1.4619652128299727e+00  5.8739748865776142e-01  5.8390753882321100e-01  -8.6707460142344506e-01  1.4909862683028967e+00  -6.7931118609565455e-01  -4.9671420924176063e-01  4.7503422997814648e-01  1.8893721375333459e+00  5.2161613690287756e-01  7.7099596375409529e-02  1.6743119644998536e+00  -7.6404588474805957e-01  7.6819901843119487e-01  7.4364107278487435e-01  -4.0998650341390480e-01  7.1867802265634795e-01  8.4817454963911743e-01  1.0751406660671565e+00  -5.2718605539185581e-01  -5.2808344060153822e-01  -7.4238837334604013e-01  -4.7142557718616307e-02  4.4944049423871224e-01  1.0220971892417730e+00  -5.5653399896234590e-01  1.2970294213825557e+00  5.4537203140134483e-01  1.6667114708432593e+00  -4.3234564027984923e-01  1.9422166063639837e-01  3.2654166492448933e-01  4.4836536897012239e-02  -6.0902349731578154e-01  -2.9491875822917974e-02  9.5279135274187587e-01  2.8977327883083287e-01  -6.4246108122751766e-01  -1.0717078286696189e+00  -8.9075985975766936e-01  5.4921236974607068e-01  6.4374627751075697e-01  -7.0610773191805487e-01  -9.8743410869490400e-01  -8.0765823655291635e-01  -3.8586818262656564e-01  4.4195950720740496e-01  1.4540244832111153e+00  -5.7629543833543373e-01  7.7083326877959246e-01  -1.7418635449016609e-01  1.4095101983558143e+00  7.2750195123569406e-01  -3.7417102867163637e-01  -3.8543881083833725e-01  8.4062074530950459e-01  -5.5638562455802476e-01  1.7636656756019207e+00  8.2758477594601587e-02  -8.3333718294233106e-01  -4.4661038932769825e-01  2.5893022562911694e-01  -1.3312913373886714e-01  -4.7285372586402064e-01  3.7741732002278394e-01  6.6613287093818987e-02  1.1564160420457452e+00  1.0639495255577673e+00  1.0615445018896937e-01  6.8182123650961690e-01  9.7618561326393005e-01  2.4381378770324108e-01  1.5866672387312024e+00  1.0338006776750276e-01  1.8213005084453751e+00  7.2892286511878035e-01  -6.8596207372858986e-01  1.8842488488449399e-01  -4.1567635775824480e-01  2.8414448297207684e-01  1.4823636228265216e+00  -4.2247900354946960e-01  1.6860366540660305e+00  1.1346897666873610e+00  2.8148569288414821e-01  -6.8852727327307051e-01  -4.6960569330178786e-01  1.1331938505804267e+00  -3.2101990835703548e-01  -6.2261166298052273e-01  7.1386898808386903e-02  3.7593115344087696e-01  2.9103011369858915e-03  2.4761067008279156e-01  8.4581470723109387e-01  5.9922836453398819e-02  7.9548193478424500e-01  8.4682491599841625e-01  -2.1870919257135144e-01  1.9367718077536049e+00  -3.9174963221661574e-01  9.0185134373474130e-01  -5.2694393701378087e-02  -2.7890441771298696e-01  -1.3976606368839102e-02  2.7365774836149054e-01  5.9236826470111592e-01  4.1958673273153774e-01  -3.3677346647840595e-01  -2.2222705807566712e-01  7.6449986656021174e-01  1.2963235671801980e+00  -6.0459313503110312e-01  1.8375022775036456e+00  1.3181464079989599e-01  -4.8925496474966829e-01  1.4536026469358554e-01  5.5077700081559855e-01  1.0232461916125086e+00  1.9474351040642537e-01  -6.6506323767438069e-01  1.0200271281253448e+00  4.3234290032590189e-01  3.3623697466179964e-01  7.2381856000664135e-01  3.3685268172243205e-01  -6.2768313064010517e-01  9.8639497242772656e-01  1.0732706156091167e+00  -4.3313352002230421e-01  4.8000110606062263e-01  1.7409314186289304e+00  -5.4594365636536812e-01  -6.5378718123466406e-01  -7.5411641574182831e-01  1.0364041062620089e+00  -3.8330994146524683e-01  1.4027490559513787e+00  6.4013345377248199e-01  -3.2108342391601796e-01  -4.5550116535937718e-01  -8.5330468738446774e-01  -7.1270419418682052e-01  1.2620436496907007e-02  -9.0382153601284265e-01  -1.0016716647420278e+00  5.8553929612554156e-01  -2.1649288009308684e-01  2.7767355995515508e-01  1.1371372432884583e+00  8.8373108104687925e-01  1.2537258158038800e+00  -1.4018315898806921e-01  1.2346977373182848e+00  1.4356581174110590e+00  5.3050809723631187e-01  5.2407348221293781e-01  4.7505163954918445e-01  6.4703730246187419e-02  -3.7390104591424922e-01  -3.3655507873647134e-01  1.9385624020385435e+00  -4.2198440582532537e-01  -6.8691741904195158e-01  6.2770552927115209e-01  4.1337870941291578e-02  -1.2523071515294984e-01  -2.5457576236194962e-01  -4.1496383322990910e-01  -8