<?xml version="1.0"?>
<VTKFile type="UnstructuredGrid"  version="0.1"  >
<UnstructuredGrid>
<Piece  NumberOfPoints="6146" NumberOfCells="11816">
<Points>
<DataArray  type="Float64"  NumberOfComponents="3"  format="ascii">0 0 0  0 0.41 0  2.2 0 0  2.2 0.41 0  0.2 0.25 0  0.25 0.2 0  0.2 0.15 0  0.15 0.2 0  0 0.4000000000000008 0  0 0.3900000000000259 0  0 0.3800000000000606 0  0 0.3700000000000953 0  0 0.3600000000001082 0  0 0.3500000000001241 0  0 0.3400000000001558 0  0 0.3300000000001905 0  0 0.3200000000002133 0  0 0.3100000000002381 0  0 0.3000000000002728 0  0 0.2900000000003075 0  0 0.2800000000003204 0  0 0.2700000000003551 0  0 0.2600000000003897 0  0 0.2500000000004243 0  0 0.2400000000004419 0  0 0.2300000000004503 0  0 0.2200000000004849 0  0 0.2100000000005195 0  0 0.2000000000005203 0  0 0.1900000000004874 0  0 0.1800000000004544 0  0 0.1700000000004476 0  0 0.1600000000004316 0  0 0.1500000000003986 0  0 0.1400000000003795 0  0 0.1300000000003759 0  0 0.1200000000003428 0  0 0.1100000000003098 0  0 0.1000000000002768 0  0 0.09000000000024383 0  0 0.08000000000021068 0  0 0.07000000000020096 0  0 0.0600000000001879 0  0 0.05000000000015475 0  0 0.04000000000012166 0  0 0.03000000000008857 0  0 0.02000000000005536 0  0 0.01000000000002221 0  0.01007679662828254 0 0  0.02056899213655081 0 0  0.03149370747042262 0 0  0.04286877787651972 0 0  0.05471276293192491 0 0  0.06704499828634325 0 0  0.07988560641938237 0 0  0.09325554633647967 0 0  0.1071766410311884 0 0  0.1216716067611488 0 0  0.1367641016067741 0 0  0.152478764481749 0 0  0.1688412308389146 0 0  0.1858782107385222 0 0  0.2036175120042742 0 0  0.2220880805924512 0 0  0.2413200720246992 0 0  0.2613448680153237 0 0  0.2821951505493904 0 0  0.303904948281349 0 0  0.3265096961752511 0 0  0.350046282509153 0 0  0.3745531279755512 0 0  0.4000702232727447 0 0  0.4266392157867663 0 0  0.4543034693483497 0 0  0.4831081324012234 0 0  0.5131002188568834 0 0  0.54432867931559 0 0  0.5768444722696365 0 0  0.6107006746708104 0 0  0.6459525479050182 0 0  0.682657603414822 0 0  0.7208757746968344 0 0  0.7606694182609572 0 0  0.8021034816821726 0 0  0.8452455957902169 0 0  0.8901661663799046 0 0  0.9369385072466508 0 0  0.9856389585079668 0 0  1.036346998189458 0 0  1.089145397956563 0 0  1.144120312199143 0 0  1.201361473554013 0 0  1.260962300595225 0 0  1.323020078687202 0 0  1.387636074977323 0 0  1.45491573887162 0 0  1.524968897456634 0 0  1.597909863440663 0 0  1.673857723466354 0 0  1.752936382158491 0 0  1.835274909595432 0 0  1.921007725838496 0 0  2.010274709627921 0 0  2.103221572060948 0 0  2.2 0.08199999999981657 0  2.2 0.1639999999995688 0  2.2 0.2459999999995603 0  2.2 0.327999999999785 0  2.103221572061646 0.41 0  2.010274709629372 0.41 0  1.921007725840496 0.41 0  1.835274909597994 0.41 0  1.752936382161568 0.41 0  1.673857723469928 0.41 0  1.597909863444748 0.41 0  1.524968897461176 0.41 0  1.454915738876575 0.41 0  1.387636074982656 0.41 0  1.323020078692824 0.41 0  1.260962300601091 0.41 0  1.201361473560091 0.41 0  1.144120312205409 0.41 0  1.089145397962884 0.41 0  1.036346998195403 0.41 0  0.9856389585135474 0.41 0  0.9369385072518699 0.41 0  0.8901661663847817 0.41 0  0.845245595794772 0.41 0  0.802103481686421 0.41 0  0.760669418264917 0.41 0  0.7208757747005239 0.41 0  0.6826576034182545 0.41 0  0.6459525479082096 0.41 0  0.6107006746737729 0.41 0  0.5768444722723829 0.41 0  0.5443286793181334 0.41 0  0.5131002188592353 0.41 0  0.483108132403395 0.41 0  0.4543034693503529 0.41 0  0.4266392157886099 0.41 0  0.4000702232744378 0.41 0  0.3745531279771039 0.41 0  0.3500462825105728 0.41 0  0.3265096961765468 0.41 0  0.3039049482825278 0.41 0  0.2821951505504596 0.41 0  0.2613448680163102 0.41 0  0.2413200720256172 0.41 0  0.2220880805933043 0.41 0  0.2036175120050649 0.41 0  0.1858782107392414 0.41 0  0.1688412308395617 0.41 0  0.1524787644823298 0.41 0  0.1367641016072927 0.41 0  0.1216716067615997 0.41 0  0.1071766410315749 0.41 0  0.09325554633680744 0.41 0  0.07988560641965403 0.41 0  0.06704499828656418 0.41 0  0.05471276293210092 0.41 0  0.04286877787665544 0.41 0  0.03149370747052016 0.41 0  0.02056899213661323 0.41 0  0.01007679662831285 0.41 0  0.2009941093832422 0.2499901164885035 0  0.2019878257548352 0.2499604698613656 0  0.2029807562584742 0.2499110718390977 0  0.2039725083485626 0.2498419419507366 0  0.2049626899453778 0.2497531075261239 0  0.2059509095900689 0.2496446036851018 0  0.2069367765994233 0.2495164733236293 0  0.2079199012203332 0.2493687670968211 0  0.208899894783849 0.2492015433989262 0  0.209876369858873 0.2490148683402368 0  0.2108489404052936 0.2488088157209575 0  0.2118172219266183 0.248583467002027 0  0.2127808316219855 0.248338911272912 0  0.2137393885375067 0.2480752452163837 0  0.2146925137168532 0.2477925730703012 0  0.2156398303510693 0.247491006586403 0  0.2165809639275547 0.2471706649861239 0  0.2175155423781385 0.2468316749134561 0  0.2184431962261471 0.2464741703848905 0  0.2193635587324768 0.2460982927364335 0  0.2202762660405913 0.2457041905677276 0  0.2211809573203641 0.2452920196833053 0  0.2220772749107273 0.2448619430309942 0  0.2229648644610677 0.2444141306374986 0  0.2238433750713457 0.2439487595411649 0  0.2247124594307593 0.2434660137220228 0  0.2255717739550953 0.2429660840290282 0  0.2264209789225549 0.2424491681046155 0  0.227259738608055 0.2419154703065648 0  0.2280877214159585 0.2413652016272072 0  0.2289046000111568 0.2407985796100187 0  0.2297100514485014 0.2402158282636004 0  0.2305037573004443 0.2396171779731418 0  0.2312854037829426 0.2390028654093291 0  0.2320546818795267 0.2383731334347658 0  0.2328112874634348 0.2377282310079845 0  0.2335549214178666 0.2370684130850081 0  0.2342852897542382 0.2363939405185524 0  0.23500210372839 0.2357050799549172 0  0.2357050799547543 0.2350021037285561 0  0.236393940518396 0.2342852897544042 0  0.2370684130848552 0.2335549214180355 0  0.2377282310078377 0.2328112874636036 0  0.2383731334346237 0.2320546818796969 0  0.2390028654091947 0.2312854037831102 0  0.2396171779730177 0.2305037573006055 0  0.2402158282634863 0.2297100514486559 0  0.2407985796099098 0.2289046000113105 0  0.2413652016271038 0.2280877214161108 0  0.2419154703064672 0.2272597386082051 0  0.2424491681045289 0.2264209789226942 0  0.2429660840289533 0.2255717739552211 0  0.2434660137219522 0.2247124594308835 0  0.2439487595410967 0.2238433750714713 0  0.2444141306374335 0.2229648644611936 0  0.2448619430309386 0.2220772749108404 0  0.2452920196832561 0.2211809573204692 0  0.2457041905676833 0.2202762660406911 0  0.2460982927363924 0.2193635587325747 0  0.246474170384854 0.2184431962262392 0  0.2468316749134214 0.2175155423782314 0  0.2471706649860917 0.216580963927646 0  0.2474910065863757 0.215639830351152 0  0.2477925730702761 0.2146925137169349 0  0.2480752452163603 0.2137393885375889 0  0.2483389112728914 0.2127808316220633 0  0.248583467002012 0.2118172219266803 0  0.2488088157209458 0.2108489404053462 0  0.2490148683402261 0.2098763698589259 0  0.249201543398917 0.2088998947838999 0  0.2493687670968142 0.2079199012203759 0  0.2495164733236233 0.2069367765994661 0  0.2496446036850975 0.205950909590105 0  0.2497531075261207 0.2049626899454101 0  0.2498419419507343 0.2039725083485922 0  0.2499110718390968 0.2029807562584889 0  0.2499604698613655 0.2019878257548365 0  0.2499901164885035 0.2009941093832422 0  0.2499901164885035 0.1990058906167579 0  0.2499604698613656 0.1980121742451648 0  0.2499110718390977 0.1970192437415259 0  0.2498419419507366 0.1960274916514374 0  0.2497531075261239 0.1950373100546222 0  0.2496446036851018 0.1940490904099311 0  0.2495164733236293 0.1930632234005767 0  0.2493687670968211 0.1920800987796668 0  0.2492015433989262 0.191100105216151 0  0.2490148683402368 0.190123630141127 0  0.2488088157209575 0.1891510595947065 0  0.248583467002027 0.1881827780733817 0  0.248338911272912 0.1872191683780146 0  0.2480752452163837 0.1862606114624933 0  0.2477925730703012 0.1853074862831468 0  0.247491006586403 0.1843601696489307 0  0.2471706649861239 0.1834190360724454 0  0.2468316749134561 0.1824844576218615 0  0.2464741703848905 0.181556803773853 0  0.2460982927364335 0.1806364412675232 0  0.2457041905677276 0.1797237339594087 0  0.2452920196833053 0.1788190426796359 0  0.2448619430309942 0.1779227250892727 0  0.2444141306374986 0.1770351355389324 0  0.2439487595411649 0.1761566249286543 0  0.2434660137220228 0.1752875405692407 0  0.2429660840290282 0.1744282260449047 0  0.2424491681046155 0.1735790210774451 0  0.2419154703065648 0.172740261391945 0  0.2413652016272072 0.1719122785840415 0  0.2407985796100187 0.1710953999888432 0  0.2402158282636004 0.1702899485514986 0  0.2396171779731418 0.1694962426995557 0  0.2390028654093291 0.1687145962170574 0  0.2383731334347658 0.1679453181204733 0  0.2377282310079845 0.1671887125365652 0  0.2370684130850081 0.1664450785821334 0  0.2363939405185524 0.1657147102457618 0  0.2357050799549172 0.16499789627161 0  0.2350021037285561 0.1642949200452457 0  0.2342852897544042 0.1636060594816041 0  0.2335549214180355 0.1629315869151449 0  0.2328112874636036 0.1622717689921623 0  0.2320546818796969 0.1616268665653763 0  0.2312854037831102 0.1609971345908053 0  0.2305037573006055 0.1603828220269823 0  0.2297100514486559 0.1597841717365137 0  0.2289046000113105 0.1592014203900902 0  0.2280877214161108 0.1586347983728962 0  0.2272597386082051 0.1580845296935329 0  0.2264209789226942 0.1575508318954712 0  0.2255717739552211 0.1570339159710467 0  0.2247124594308835 0.1565339862780478 0  0.2238433750714713 0.1560512404589033 0  0.2229648644611936 0.1555858693625665 0  0.2220772749108404 0.1551380569690615 0  0.2211809573204692 0.1547079803167439 0  0.2202762660406911 0.1542958094323167 0  0.2193635587325747 0.1539017072636076 0  0.2184431962262392 0.153525829615146 0  0.2175155423782314 0.1531683250865786 0  0.216580963927646 0.1528293350139083 0  0.215639830351152 0.1525089934136243 0  0.2146925137169349 0.1522074269297239 
[...]
<PointData  Scalars="f_19"> 
<DataArray  type="Float64"  Name="f_19"  format="ascii">4.5221815476274196e-01  5.0680979107669311e-01  0.0000000000000000e+00  0.0000000000000000e+00  -8.2565247461725311e-01  -4.5698433632690094e-01  -1.1206022155064022e+00  1.9616612245711558e+00  5.0671884820009550e-01  5.0702630789202785e-01  5.0833160393762133e-01  5.1135103537124549e-01  5.1660111171331968e-01  5.2455256194188127e-01  5.3556220430291657e-01  5.4983023953990651e-01  5.6739757900033927e-01  5.8813418019884578e-01  6.1172807660837147e-01  6.3774987256635551e-01  6.6519554965756866e-01  6.9327701722343482e-01  7.2108974217603306e-01  7.4687959200562093e-01  7.6960781352713015e-01  7.8829911581678536e-01  8.0120666561705023e-01  8.0767195967911454e-01  8.0704056449697315e-01  7.9997052978018091e-01  7.8586810251360095e-01  7.6600364041113844e-01  7.4053860383294701e-01  7.1160838447509622e-01  6.8043050168011032e-01  6.4792681509993311e-01  6.1582897323887886e-01  5.8522874256624213e-01  5.5676378340615151e-01  5.3133685883547244e-01  5.0953296515284252e-01  4.9137122683329620e-01  4.7709375291238548e-01  4.6652459513743949e-01  4.5917457130071349e-01  4.5483432118419137e-01  4.5263639847141041e-01  4.5214823861308978e-01  4.5173833994599805e-01  4.5091908866861929e-01  4.4930472959732920e-01  4.4645617767853624e-01  4.4205506005197565e-01  4.3543506916028840e-01  4.2609123994487508e-01  4.1303497311346643e-01  3.9648604865359827e-01  3.7393520349119697e-01  3.4612439671480488e-01  3.1175898333339147e-01  2.7236029822511626e-01  2.2884621321552515e-01  1.8310626112834744e-01  1.3949132599779587e-01  1.0246465481992585e-01  7.7545833121229271e-02  6.2824212360150983e-02  7.0367816564098074e-02  9.1481082718517570e-02  1.3246023609741139e-01  1.7907526840420704e-01  2.3188766873398556e-01  2.8190089429087006e-01  3.0905873448011539e-01  3.1575496044211115e-01  2.8311987746758827e-01  2.2076722154729492e-01  1.4230741058362747e-01  9.4602602844598066e-02  7.7669852558989130e-02  8.0403017029921600e-02  1.1053934037826783e-01  1.7864563942735140e-01  2.5588876712503839e-01  2.9982024695017279e-01  2.9662276314022229e-01  2.4656299246810295e-01  1.7870095868462402e-01  6.6034620908473063e-02  -2.3902969659542143e-02  4.5512411853912922e-02  1.8522368075937440e-01  2.6491668068769342e-01  2.1548378456806264e-01  5.8718007228407948e-02  -7.5818714647985119e-02  -8.0329484894794082e-03  1.2162642783198518e-01  1.5921754331357293e-01  7.2142860676807322e-02  -8.2222198242723435e-02  -5.3293705326491386e-02  7.3715262642680440e-02  1.1420974029861003e-01  0.0000000000000000e+00  0.0000000000000000e+00  0.0000000000000000e+00  0.0000000000000000e+00  -1.3764174779676727e-01  -8.0261708148059815e-02  5.8945251990998489e-02  1.0799622019792526e-01  2.2857658383530474e-02  -7.9727497110233775e-02  -3.3090720168238437e-03  1.2864551086914930e-01  2.1385384311521161e-01  1.4349045943258570e-01  -3.6224709247568890e-02  -4.6520229964328565e-02  8.8053614220415355e-02  2.1705295315360343e-01  3.0228955349640241e-01  2.8373871874663859e-01  1.7716832788597686e-01  5.3228840268712024e-02  3.6441370988343158e-02  1.0138447715109736e-01  1.7469551942143893e-01  2.4001552815121760e-01  2.9738067393255946e-01  3.4066815329816985e-01  3.5134847451353635e-01  3.2209107689924349e-01  2.5688467528180042e-01  1.7394924006633136e-01  9.7476000519565162e-02  4.5823461508987424e-02  2.2044309006656607e-02  2.9492634634056360e-02  4.8649517495261065e-02  7.3675669499170302e-02  9.9240468762459275e-02  1.2719960852666345e-01  1.5574923833637230e-01  1.9023968579102105e-01  2.2575674168343124e-01  2.6569250854958781e-01  3.0436938503980915e-01  3.4353623070123590e-01  3.7851793776300779e-01  4.0949006234903501e-01  4.3454809506573533e-01  4.5472978917383983e-01  4.6986278309893481e-01  4.8126559102242977e-01  4.8906934707497168e-01  4.9471488217552023e-01  4.9870737707466789e-01  5.0144598812435437e-01  5.0337270647627386e-01  5.0472168837343967e-01  5.0562080783155372e-01  5.0624803072515723e-01  -8.0933213065793508e-01  -7.9271138819548292e-01  -7.7568462245102376e-01  -7.5837520054841112e-01  -7.4076864173383894e-01  -7.2325689449236719e-01  -7.0545244448680666e-01  -6.8784182896613566e-01  -6.7042855672406654e-01  -6.5280361785583008e-01  -6.3649699571706342e-01  -6.1959187040036168e-01  -6.0342283484637793e-01  -5.8784205522191990e-01  -5.7273466061689038e-01  -5.5789354924751600e-01  -5.4389225112581008e-01  -5.3023441523462489e-01  -5.1724474652129371e-01  -5.0476353810803487e-01  -4.9294288563097038e-01  -4.8156951362011641e-01  -4.7077076593061934e-01  -4.6049103618748882e-01  -4.5072719975818265e-01  -4.4149605656137025e-01  -4.3272904152690256e-01  -4.2447501429867418e-01  -4.1664886104111110e-01  -4.0930582472648458e-01  -4.0237746182445144e-01  -3.9594460076411869e-01  -3.8994851355259341e-01  -3.8446530667276302e-01  -3.7943968073741285e-01  -3.7494153855114781e-01  -3.7099054806187254e-01  -3.6753649960442214e-01  -3.6465696313145979e-01  -3.6231604162134595e-01  -3.6053542919237125e-01  -3.5928677810533288e-01  -3.5856995311964918e-01  -3.5836035967707985e-01  -3.5863098694779405e-01  -3.5935499912883140e-01  -3.6048217982702974e-01  -3.6199161381127637e-01  -3.6382402329966501e-01  -3.6595602329371391e-01  -3.6832289064551454e-01  -3.7092183685957286e-01  -3.7368278495527729e-01  -3.7660118556187056e-01  -3.7961858678638810e-01  -3.8273274059541118e-01  -3.8589037066272613e-01  -3.8909947339484491e-01  -3.9232643391441424e-01  -3.9556814167152149e-01  -3.9878438098373431e-01  -4.0198913082972432e-01  -4.0516949957402376e-01  -4.0828491019135521e-01  -4.1136899449824854e-01  -4.1442664197318207e-01  -4.1745909974113465e-01  -4.2047043223129643e-01  -4.2347861921118291e-01  -4.2646563322619280e-01  -4.2946664894339370e-01  -4.3252642732704932e-01  -4.3561920334154186e-01  -4.3883186643903055e-01  -4.4211183192251025e-01  -4.4555346260208273e-01  -4.4917426107339031e-01  -4.5297835263120162e-01  -4.6121446766571750e-01  -4.6574128554366934e-01  -4.7061107288670062e-01  -4.7571456256360617e-01  -4.8115790584603790e-01  -4.8696805143725491e-01  -4.9302307405686580e-01  -4.9949066355599531e-01  -5.0627466456626125e-01  -5.1332833131792677e-01  -5.2069772950645277e-01  -5.2833944656870513e-01  -5.3625566388748702e-01  -5.4435408592980206e-01  -5.5267952425438993e-01  -5.6110240484509133e-01  -5.6968177758040051e-01  -5.7829032982773210e-01  -5.8692155875228802e-01  -5.9557090222558573e-01  -6.0412139785985952e-01  -6.1261197369272002e-01  -6.2093496342245569e-01  -6.2912796167601304e-01  -6.3708449125704458e-01  -6.4482666356685037e-01  -6.5230390834885710e-01  -6.5948179557738773e-01  -6.6642161146239520e-01  -6.7303575714176800e-01  -6.7939213440296020e-01  -6.8544383165710232e-01  -6.9117819074277886e-01  -6.9670462092131291e-01  -7.0197342304068788e-01  -7.0705539676464901e-01  -7.1198277623930251e-01  -7.1673929909950473e-01  -7.2143975315012832e-01  -7.2605895158063916e-01  -7.3071618600025667e-01  -7.3546770125668826e-01  -7.4028191325961379e-01  -7.4521304346445039e-01  -7.5040005030874357e-01  -7.5583680641210094e-01  -7.6158834786538387e-01  -7.6760547551362324e-01  -7.7404306841704973e-01  -7.8088633697462695e-01  -7.8805515524344338e-01  -7.9565717497473254e-01  -8.0392295920943202e-01  -8.1252345385538793e-01  -8.2146035454451038e-01  -8.3100993295093917e-01  -8.4111171184914502e-01  -8.5155673181790859e-01  -8.6232947689554973e-01  -8.7373727655580191e-01  -8.8550450406570258e-01  -8.9770867635300700e-01  -9.1045161872068192e-01  -9.2335299035644236e-01  -9.3641015587431398e-01  -9.4995992950778552e-01  -9.6384253772520823e-01  -9.7768114453949562e-01  -9.9180463893527016e-01  -1.0058608995051259e+00  -1.0199108709116902e+00  -1.0337640416006721e+00  -1.0475435746293449e+00  -1.0610823982805739e+00  -1.0742174856886517e+00  -1.0868011525569201e+00  -1.0987754958936498e+00  -1.1100413024792195e+00  -1.1302511879019121e+00  -1.1389187858243885e+00  -1.1463868491661524e+00  -1.1522134546077440e+00  -1.1569458043328995e+00  -1.1606228258799607e+00  -1.1623166933520461e+00  -1.1622918379651994e+00  -1.1604964154903084e+00  -1.1568862807362299e+00  -1.1513692552814205e+00  -1.1436854309073081e+00  -1.1339479358747129e+00  -1.1218617601260972e+00  -1.1075927617575079e+00  -1.0908858537333166e+00  -1.0719640319361530e+00  -1.0504474201182878e+00  -1.0267463901423233e+00  -1.0005518498151491e+00  -9.7197157789923105e-01  -9.4087346635395930e-01  -9.0690112919977817e-01  -8.7089295297051750e-01  -8.3252047467875556e-01  -7.9144925544633182e-01  -7.4886208229686502e-01  -7.0278240403369141e-01  -6.5505164668786664e-01  -6.0520330091712893e-01  -5.5317734704282095e-01  -4.9886773112432442e-01  -4.4295255117856452e-01  -3.8501228546044547e-01  -3.2512143054661685e-01  -2.6387827777649642e-01  -2.0076980185979343e-01  -1.3666719276779843e-01  -7.1071397930340591e-02  -3.9828789988585580e-03  6.4008956445263013e-02  1.3262943336042618e-01  2.0232164293663019e-01  2.7272265839708437e-01  3.4333476987580935e-01  4.1446624445552044e-01  4.8565712506207392e-01  5.5676646935209706e-01  6.2795235173718045e-01  6.9883149824933555e-01  7.6924714463788979e-01  8.3891563992018170e-01  9.0797568770074322e-01  9.7590458447766448e-01  1.0429032494548582e+00  1.1087408188160437e+00  1.1731547448999438e+00  1.2355190983613524e+00  1.2967815181114430e+00  1.3557644552285748e+00  1.4125602858169506e+00  1.4676182789773009e+00  1.5203368782820366e+00  1.5704759866309252e+00  1.6179611259897888e+00  1.6630188638336081e+00  1.7054122860175125e+00  1.7444773166214298e+00  1.7808880199798958e+00  1.8140881805856885e+00  1.8441211652331893e+00  1.8708991135414557e+00  1.8944277607454512e+00  1.9141846272671130e+00  1.9307345669767080e+00  1.9437655025265219e+00  1.9537813839659322e+00  1.9594586364518638e+00  1.9606549935835007e+00  1.9559592347444392e+00  1.9477551070890486e+00  1.9360622044742637e+00  1.9207615946382017e+00  1.9021602681991328e+00  1.8795771595855300e+00  1.8540475534588594e+00  1.8253167280643723e+00  1.7933134418839956e+00  1.7583162219006649e+00  1.7200862518852218e+00  1.6792300306561312e+00  1.6356223974723121e+00  1.5890174441380405e+00  1.5401289221341563e+00  1.4884982230526467e+00  1.4346769678943379e+00  1.3786562634669275e+00  1.3202596329331691e+00  1.2610064993432593e+00  1.1995675442501408e+00  1.1361823366745463e+00  1.0718140771198801e+00  1.0060390445354173e+00  9.3943133143267032e-01  8.7173004737476367e-01  8.0329346488358644e-01  7.3467928488709233e-01  6.6530245519336118e-01  5.9578941643699690e-01  5.2646564728733691e-01  4.5710879584592140e-01  3.8798142296807681e-01  3.1934990545101466e-01  2.5155662961694331e-01  1.8433958826507893e-01  1.1794318244216458e-01  5.2656969739986410e-02  -1.1048237538635333e-02  -7.3544978122955185e-02  -1.3472770425813774e-01  -1.9397316916285923e-01  -2.5176362191275276e-01  -3.0780029836308465e-01  -3.6150365935879619e-01  -4.1292605015268186e-01  -4.6262213966996668e-01  -5.0980268602466783e-01  -5.5482426542565566e-01  -5.9721555881348509e-01  -6.3716772764521890e-01  -6.7473480786057827e-01  -7.0965558038272691e-01  -7.4196663424587561e-01  -7.7232282483139458e-01  -7.9868043012972267e-01  -8.2335129560951736e-01  -8.4522651433191365e-01  -8.6457549188866956e-01  -8.8120700076915626e-01  -8.9532447379967184e-01  -9.0734344841436876e-01  -9.1646627229867139e-01  -9.2333572583892998e-01  -9.2783205621179421e-01  -9.3023426195601699e-01  -9.3047108949223711e-01  -9.2869409588600493e-01  -9.2519769480035108e-01  -9.1954435690606351e-01  -9.1240410659955462e-01  -9.0371336910995204e-01  -8.9281428992400391e-01  -8.8241573885846170e-01  -8.6911489684185939e-01  -8.5543516663015751e-01  -8.4087463522941130e-01  5.5906467184937936e-01  3.0113067520813469e-01  9.5209777197981094e-01  8.8611051196788837e-01  3.9832389320016115e-01  4.4907006772992336e-02  -5.9421275857517519e-01  4.0802920931920700e-02  -1.7949077584936970e-01  -3.5035262756742247e-01  6.7930367935379909e-01  1.1995416737504071e-01  7.7148388360616826e-01  2.6894631623618592e-01  -4.9924509626830021e-01  1.3107720751252860e+00  1.2795951462472532e+00  -9.1219652878350196e-02  -2.2904406092473018e-01  1.1844866200491411e+00  -2.7280934146967123e-01  -4.9360457470558033e-01  -3.1191505022350646e-01  -4.6422870452784532e-01  -7.3385343861600005e-01  4.6431414898120871e-01  7.4965818609449397e-01  9.2359704288435152e-02  -3.7952895374264173e-01  1.6321920250784030e+00  -9.4188370057230408e-02  -3.7478848616850202e-01  9.8444706356567901e-01  1.6037548540265294e+00  -4.3417304682027280e-01  1.5272817259240214e+00  -4.0662700065223328e-01  -3.2890421802900127e-01  1.2246964182847166e+00  -6.6096875039084302e-01  -7.1282780489480690e-01  -7.2223158080004612e-01  -6.0689260263817213e-01  -3.2763738749429788e-01  -4.1464826634719432e-01  -7.4863677364770775e-01  4.6521377281176396e-01  -6.3058880928210631e-02  2.8610904442614637e-01  9.5528999593232733e-01  -4.8796812711112558e-01  -6.4559648984536022e-01  1.8179012516220034e+00  1.2167563972611262e+00  7.3321050590386683e-01  -2.7309546562009301e-01  -6.2759336580444758e-01  5.4748609057091657e-01  -8.8206087850999404e-01  -8.9762192562950260e-01  -8.3182994060112458e-01  1.8120158771230788e+00  -5.7310577712577426e-01  -7.7236919353600642e-01  -7.2184177589092868e-01  -4.8989150135037057e-01  -6.5425152228771999e-01  -1.1640216583383080e-02  1.5479793611767936e+00  7.5542806473643043e-01  6.7058654661759820e-01  -3.7942494422303191e-01  -6.9689497996612826e-01  -5.1137998438463605e-01  -3.9365327532333577e-01  -4.1942095946424413e-01  -3.6296785760339523e-01  -3.4763994370703349e-01  -7.6165473366696690e-01  2.1947535220257708e-01  1.7846001421443993e+00  5.3429086488835975e-01  -6.5048495774701698e-01  -5.5569237336956723e-01  -6.3754937153188762e-01  -1.0190368965421523e+00  1.5010080753386399e+00  -4.5667999634037793e-01  7.4401425326673754e-01  1.2622244345646774e+00  -4.5432273878486690e-01  5.2597406181021755e-01  4.4931830653991917e-01  6.5212486702916850e-01  5.4270666495428103e-02  1.0996390030312087e+00  9.7674051410044860e-01  -3.6397765440626983e-01  7.9156406481551600e-01  1.1608206106864076e+00  8.3308816813611886e-01  -1.0251039040042682e+00  -5.9568485646481906e-01  -3.4356618697866437e-02  3.4386424701726270e-01  -5.3341969524598430e-02  -6.4749249000869069e-01  6.9498323104477477e-01  -7.4932668108413325e-01  -4.9611004793632096e-01  1.7359389048753163e-01  4.3022990139390449e-01  9.1659779928005070e-01  -5.7050981335846448e-02  3.6359472228727491e-01  1.8929208648482385e+00  4.9618380130467094e-01  2.1583184555178753e-01  1.1315077726643211e-02  -7.2547951810510392e-01  1.6969930934611877e+00  2.1274039615817653e-01  -9.1947512584080626e-01  3.9991335847876930e-01  9.9834264141726581e-01  -9.3680367321093272e-01  -4.3710614821662108e-01  -7.4733715149353752e-01  -2.5639929345536161e-01  1.4759382443770110e+00  9.1014441495930876e-01  -3.8315616976974515e-01  -4.0451955900018327e-01  -8.2623823093888982e-01  1.0059071854512831e+00  -3.7421035574658690e-01  -8.0249943976196614e-01  1.3639255020154171e+00  -6.5439464080195830e-01  -5.8915013044677544e-01  5.3572611681316662e-01  -8.4055257846081233e-01  -7.5115778886658713e-01  1.2540912106891158e+00  1.0763388743231892e+00  -5.2591645603302029e-01  4.6757155284413221e-01  -6.0521326391096496e-02  -9.9738295458529347e-01  -3.5289629099703057e-01  7.7517634274573255e-01  8.9849169619072844e-01  1.6781659173033157e+00  1.8885695765359287e+00  1.2915702143697643e+00  3.9239093906813438e-01  1.2587835451422658e-01  -7.5353854846232958e-03  4.4264048190289795e-01  -1.5447017699340465e-01  -7.0586022604128629e-01  -6.8248383351602970e-01  -1.8034683006030794e-01  6.6557094347691781e-01  -3.9189357778674272e-01  -4.2737276750657810e-01  -2.5240019685391440e-01  -1.7094227994248809e-01  1.4726552499174663e+00  5.0258030174638357e-01  5.0598033006246668e-01  -1.0870526173077346e+00  1.4862235741704066e+00  -3.5888293258990489e-01  -4.2267025564957394e-01  3.5696725226244402e-01  1.8700998218503087e+00  5.2378055078995378e-01  -8.2135236848681528e-02  1.6627745266286933e+00  -8.8601415968394392e-01  7.8977610109370022e-01  7.1554934393305480e-01  -5.5218336470741880e-01  7.3848529031076837e-01  8.3395571296196025e-01  1.0421091479349982e+00  -9.9368936067610869e-01  -1.5534615970593316e-01  -6.6051480754895064e-01  -1.6560486034507066e-01  5.0630899240617855e-01  1.0199580211767998e+00  -8.9042988477113949e-01  1.2734070563402167e+00  5.9073075270098785e-01  1.6553594074357083e+00  -7.8008194856183866e-01  2.7480305736648519e-01  -1.6412399704957056e-02  1.7882659176064145e-01  -2.8026734187007946e-01  -1.2061296277534946e-02  9.2784573832431083e-01  4.0277128982067112e-01  -3.6130965270831850e-01  -8.7524817894520068e-01  -1.0818561147928007e+00  5.9006089964447805e-01  5.8699403813222395e-01  -3.7591956805884269e-01  -6.9985419206670751e-01  -4.8397039704270850e-01  -6.2491838564115187e-01  3.3185562197452328e-01  1.4409912226912380e+00  -3.7822801131196904e-01  8.0555933724673423e-01  2.0580535965105309e-03  1.3891592061617253e+00  6.6638224276526237e-01  -6.5820621544332947e-01  -6.2255168323895849e-01  7.9104324650206903e-01  -6.3302235298763687e-01  1.7517270964193488e+00  6.7556626583494969e-02  -1.0962308833672136e+00  -4.6955013108404364e-01  -1.6308717555152863e-01  2.3391530098098609e-01  -4.3847006671451788e-01  2.2479963772544745e-01  6.4354520933530418e-02  1.1488448912596230e+00  1.0774674165174065e+00  2.2433733622635216e-01  7.0645901091633034e-01  9.5058052996286591e-01  1.1284228581760962e-01  1.5537865158412387e+00  1.7018478672105974e-01  1.8231671439452981e+00  6.8541561581915289e-01  -3.5515582512047583e-01  3.1706873577022848e-01  -7.4232956870951994e-01  3.2335602447407202e-01  1.4728982240192565e+00  -5.2009229319572736e-01  1.6685390501773116e+00  1.1444976550186912e+00  1.1671940926004726e-01  -4.1785406285260140e-01  -8.1442331902944598e-01  1.0992641398220979e+00  -7.1656737542710114e-01  -3.5768359522668436e-01  1.3040983567886635e-01  4.6389323528822302e-01  -4.5289908042089252e-02  1.3962049765076040e-01  8.6864498186484340e-01  2.5500633917857413e-02  7.3659667229452330e-01  8.1156671339541486e-01  -4.0262834813774512e-01  1.9271225448234970e+00  -7.4249559344425375e-01  9.0604957475393955e-01  -4.2774736962303543e-02  -3.7599561412640864e-01  1.3904461255887668e-01  -3.3355911833138874e-01  6.3819357814062949e-01  4.9483416123644502e-01  -2.0882703553109561e-01  -2.5834889867577004e-01  7.7084422873445146e-01  1.3107126627709917e+00  -3.7394405646451451e-01  1.8124639955026340e+00  2.2695437966965531e-02  -4.4726846125305675e-01  -2.6637120098816552e-02  6.0264396120672781e-01  9.9565538688998634e-01  1.2950852148053160e-01  -3.5892568914250439e-01  1.0144469015597399e+00  4.9649993889997585e-01  4.2101074513687586e-01  7.3354970707630340e-01  3.3479015650631938e-01  -6.0156381194385311e-01  9.4799570441198489e-01  1.0861670425071677e+00  -6.1796122243998530e-01  4.5738597573311390e-01  1.7323909754438178e+00  -3.9777849399434756e-01  -9.7386717390717625e-01  -1.0507913556071429e+00  1.0255937176824841e+00  -7.3525540079917473e-01  1.4001689978083049e+00  6.0615048557964391e-01  -7.3072093043149644e-01  -6.7716675767612922e-01  -1.0005576168728985e+00  -8.1507023222577213e-01  4.0497002863578990e-02  -7.9201987889857428e-01  -8.5801344576450689e-01  6.4016895055277545e-01  -1.4263107929903585e-01  1.3432868674919871e-01  1.1013132849668021e+00  9.1212845182365487e-01  1.2301870347181754e+00  -1.3101572261109315e-01  1.2142794487334874e+00  1.4197458807650607e+00  4.5165812385360343e-01  4.4023578533828145e-01  5.3182141042277109e-01  2.9816343431696823e-01  -7.2004021191098122e-01  -6.9398562423512977e-01  1.9235941473568616e+00  -2.2012362785622780e-01  -3.1208174395538169e-01  6.5855765771377928e-01  -9.8429631637763387e-02  -2.3867551677578930e-03  -9.9423461599691315e-02  -7.6516905861940010