<?xml version="1.0"?>
<VTKFile type="UnstructuredGrid"  version="0.1"  >
<UnstructuredGrid>
<Piece  NumberOfPoints="6146" NumberOfCells="11816">
<Points>
<DataArray  type="Float64"  NumberOfComponents="3"  format="ascii">0 0 0  0 0.41 0  2.2 0 0  2.2 0.41 0  0.2 0.25 0  0.25 0.2 0  0.2 0.15 0  0.15 0.2 0  0 0.4000000000000008 0  0 0.3900000000000259 0  0 0.3800000000000606 0  0 0.3700000000000953 0  0 0.3600000000001082 0  0 0.3500000000001241 0  0 0.3400000000001558 0  0 0.3300000000001905 0  0 0.3200000000002133 0  0 0.3100000000002381 0  0 0.3000000000002728 0  0 0.2900000000003075 0  0 0.2800000000003204 0  0 0.2700000000003551 0  0 0.2600000000003897 0  0 0.2500000000004243 0  0 0.2400000000004419 0  0 0.2300000000004503 0  0 0.2200000000004849 0  0 0.2100000000005195 0  0 0.2000000000005203 0  0 0.1900000000004874 0  0 0.1800000000004544 0  0 0.1700000000004476 0  0 0.1600000000004316 0  0 0.1500000000003986 0  0 0.1400000000003795 0  0 0.1300000000003759 0  0 0.1200000000003428 0  0 0.1100000000003098 0  0 0.1000000000002768 0  0 0.09000000000024383 0  0 0.08000000000021068 0  0 0.07000000000020096 0  0 0.0600000000001879 0  0 0.05000000000015475 0  0 0.04000000000012166 0  0 0.03000000000008857 0  0 0.02000000000005536 0  0 0.01000000000002221 0  0.01007679662828254 0 0  0.02056899213655081 0 0  0.03149370747042262 0 0  0.04286877787651972 0 0  0.05471276293192491 0 0  0.06704499828634325 0 0  0.07988560641938237 0 0  0.09325554633647967 0 0  0.1071766410311884 0 0  0.1216716067611488 0 0  0.1367641016067741 0 0  0.152478764481749 0 0  0.1688412308389146 0 0  0.1858782107385222 0 0  0.2036175120042742 0 0  0.2220880805924512 0 0  0.2413200720246992 0 0  0.2613448680153237 0 0  0.2821951505493904 0 0  0.303904948281349 0 0  0.3265096961752511 0 0  0.350046282509153 0 0  0.3745531279755512 0 0  0.4000702232727447 0 0  0.4266392157867663 0 0  0.4543034693483497 0 0  0.4831081324012234 0 0  0.5131002188568834 0 0  0.54432867931559 0 0  0.5768444722696365 0 0  0.6107006746708104 0 0  0.6459525479050182 0 0  0.682657603414822 0 0  0.7208757746968344 0 0  0.7606694182609572 0 0  0.8021034816821726 0 0  0.8452455957902169 0 0  0.8901661663799046 0 0  0.9369385072466508 0 0  0.9856389585079668 0 0  1.036346998189458 0 0  1.089145397956563 0 0  1.144120312199143 0 0  1.201361473554013 0 0  1.260962300595225 0 0  1.323020078687202 0 0  1.387636074977323 0 0  1.45491573887162 0 0  1.524968897456634 0 0  1.597909863440663 0 0  1.673857723466354 0 0  1.752936382158491 0 0  1.835274909595432 0 0  1.921007725838496 0 0  2.010274709627921 0 0  2.103221572060948 0 0  2.2 0.08199999999981657 0  2.2 0.1639999999995688 0  2.2 0.2459999999995603 0  2.2 0.327999999999785 0  2.103221572061646 0.41 0  2.010274709629372 0.41 0  1.921007725840496 0.41 0  1.835274909597994 0.41 0  1.752936382161568 0.41 0  1.673857723469928 0.41 0  1.597909863444748 0.41 0  1.524968897461176 0.41 0  1.454915738876575 0.41 0  1.387636074982656 0.41 0  1.323020078692824 0.41 0  1.260962300601091 0.41 0  1.201361473560091 0.41 0  1.144120312205409 0.41 0  1.089145397962884 0.41 0  1.036346998195403 0.41 0  0.9856389585135474 0.41 0  0.9369385072518699 0.41 0  0.8901661663847817 0.41 0  0.845245595794772 0.41 0  0.802103481686421 0.41 0  0.760669418264917 0.41 0  0.7208757747005239 0.41 0  0.6826576034182545 0.41 0  0.6459525479082096 0.41 0  0.6107006746737729 0.41 0  0.5768444722723829 0.41 0  0.5443286793181334 0.41 0  0.5131002188592353 0.41 0  0.483108132403395 0.41 0  0.4543034693503529 0.41 0  0.4266392157886099 0.41 0  0.4000702232744378 0.41 0  0.3745531279771039 0.41 0  0.3500462825105728 0.41 0  0.3265096961765468 0.41 0  0.3039049482825278 0.41 0  0.2821951505504596 0.41 0  0.2613448680163102 0.41 0  0.2413200720256172 0.41 0  0.2220880805933043 0.41 0  0.2036175120050649 0.41 0  0.1858782107392414 0.41 0  0.1688412308395617 0.41 0  0.1524787644823298 0.41 0  0.1367641016072927 0.41 0  0.1216716067615997 0.41 0  0.1071766410315749 0.41 0  0.09325554633680744 0.41 0  0.07988560641965403 0.41 0  0.06704499828656418 0.41 0  0.05471276293210092 0.41 0  0.04286877787665544 0.41 0  0.03149370747052016 0.41 0  0.02056899213661323 0.41 0  0.01007679662831285 0.41 0  0.2009941093832422 0.2499901164885035 0  0.2019878257548352 0.2499604698613656 0  0.2029807562584742 0.2499110718390977 0  0.2039725083485626 0.2498419419507366 0  0.2049626899453778 0.2497531075261239 0  0.2059509095900689 0.2496446036851018 0  0.2069367765994233 0.2495164733236293 0  0.2079199012203332 0.2493687670968211 0  0.208899894783849 0.2492015433989262 0  0.209876369858873 0.2490148683402368 0  0.2108489404052936 0.2488088157209575 0  0.2118172219266183 0.248583467002027 0  0.2127808316219855 0.248338911272912 0  0.2137393885375067 0.2480752452163837 0  0.2146925137168532 0.2477925730703012 0  0.2156398303510693 0.247491006586403 0  0.2165809639275547 0.2471706649861239 0  0.2175155423781385 0.2468316749134561 0  0.2184431962261471 0.2464741703848905 0  0.2193635587324768 0.2460982927364335 0  0.2202762660405913 0.2457041905677276 0  0.2211809573203641 0.2452920196833053 0  0.2220772749107273 0.2448619430309942 0  0.2229648644610677 0.2444141306374986 0  0.2238433750713457 0.2439487595411649 0  0.2247124594307593 0.2434660137220228 0  0.2255717739550953 0.2429660840290282 0  0.2264209789225549 0.2424491681046155 0  0.227259738608055 0.2419154703065648 0  0.2280877214159585 0.2413652016272072 0  0.2289046000111568 0.2407985796100187 0  0.2297100514485014 0.2402158282636004 0  0.2305037573004443 0.2396171779731418 0  0.2312854037829426 0.2390028654093291 0  0.2320546818795267 0.2383731334347658 0  0.2328112874634348 0.2377282310079845 0  0.2335549214178666 0.2370684130850081 0  0.2342852897542382 0.2363939405185524 0  0.23500210372839 0.2357050799549172 0  0.2357050799547543 0.2350021037285561 0  0.236393940518396 0.2342852897544042 0  0.2370684130848552 0.2335549214180355 0  0.2377282310078377 0.2328112874636036 0  0.2383731334346237 0.2320546818796969 0  0.2390028654091947 0.2312854037831102 0  0.2396171779730177 0.2305037573006055 0  0.2402158282634863 0.2297100514486559 0  0.2407985796099098 0.2289046000113105 0  0.2413652016271038 0.2280877214161108 0  0.2419154703064672 0.2272597386082051 0  0.2424491681045289 0.2264209789226942 0  0.2429660840289533 0.2255717739552211 0  0.2434660137219522 0.2247124594308835 0  0.2439487595410967 0.2238433750714713 0  0.2444141306374335 0.2229648644611936 0  0.2448619430309386 0.2220772749108404 0  0.2452920196832561 0.2211809573204692 0  0.2457041905676833 0.2202762660406911 0  0.2460982927363924 0.2193635587325747 0  0.246474170384854 0.2184431962262392 0  0.2468316749134214 0.2175155423782314 0  0.2471706649860917 0.216580963927646 0  0.2474910065863757 0.215639830351152 0  0.2477925730702761 0.2146925137169349 0  0.2480752452163603 0.2137393885375889 0  0.2483389112728914 0.2127808316220633 0  0.248583467002012 0.2118172219266803 0  0.2488088157209458 0.2108489404053462 0  0.2490148683402261 0.2098763698589259 0  0.249201543398917 0.2088998947838999 0  0.2493687670968142 0.2079199012203759 0  0.2495164733236233 0.2069367765994661 0  0.2496446036850975 0.205950909590105 0  0.2497531075261207 0.2049626899454101 0  0.2498419419507343 0.2039725083485922 0  0.2499110718390968 0.2029807562584889 0  0.2499604698613655 0.2019878257548365 0  0.2499901164885035 0.2009941093832422 0  0.2499901164885035 0.1990058906167579 0  0.2499604698613656 0.1980121742451648 0  0.2499110718390977 0.1970192437415259 0  0.2498419419507366 0.1960274916514374 0  0.2497531075261239 0.1950373100546222 0  0.2496446036851018 0.1940490904099311 0  0.2495164733236293 0.1930632234005767 0  0.2493687670968211 0.1920800987796668 0  0.2492015433989262 0.191100105216151 0  0.2490148683402368 0.190123630141127 0  0.2488088157209575 0.1891510595947065 0  0.248583467002027 0.1881827780733817 0  0.248338911272912 0.1872191683780146 0  0.2480752452163837 0.1862606114624933 0  0.2477925730703012 0.1853074862831468 0  0.247491006586403 0.1843601696489307 0  0.2471706649861239 0.1834190360724454 0  0.2468316749134561 0.1824844576218615 0  0.2464741703848905 0.181556803773853 0  0.2460982927364335 0.1806364412675232 0  0.2457041905677276 0.1797237339594087 0  0.2452920196833053 0.1788190426796359 0  0.2448619430309942 0.1779227250892727 0  0.2444141306374986 0.1770351355389324 0  0.2439487595411649 0.1761566249286543 0  0.2434660137220228 0.1752875405692407 0  0.2429660840290282 0.1744282260449047 0  0.2424491681046155 0.1735790210774451 0  0.2419154703065648 0.172740261391945 0  0.2413652016272072 0.1719122785840415 0  0.2407985796100187 0.1710953999888432 0  0.2402158282636004 0.1702899485514986 0  0.2396171779731418 0.1694962426995557 0  0.2390028654093291 0.1687145962170574 0  0.2383731334347658 0.1679453181204733 0  0.2377282310079845 0.1671887125365652 0  0.2370684130850081 0.1664450785821334 0  0.2363939405185524 0.1657147102457618 0  0.2357050799549172 0.16499789627161 0  0.2350021037285561 0.1642949200452457 0  0.2342852897544042 0.1636060594816041 0  0.2335549214180355 0.1629315869151449 0  0.2328112874636036 0.1622717689921623 0  0.2320546818796969 0.1616268665653763 0  0.2312854037831102 0.1609971345908053 0  0.2305037573006055 0.1603828220269823 0  0.2297100514486559 0.1597841717365137 0  0.2289046000113105 0.1592014203900902 0  0.2280877214161108 0.1586347983728962 0  0.2272597386082051 0.1580845296935329 0  0.2264209789226942 0.1575508318954712 0  0.2255717739552211 0.1570339159710467 0  0.2247124594308835 0.1565339862780478 0  0.2238433750714713 0.1560512404589033 0  0.2229648644611936 0.1555858693625665 0  0.2220772749108404 0.1551380569690615 0  0.2211809573204692 0.1547079803167439 0  0.2202762660406911 0.1542958094323167 0  0.2193635587325747 0.1539017072636076 0  0.2184431962262392 0.153525829615146 0  0.2175155423782314 0.1531683250865786 0  0.216580963927646 0.1528293350139083 0  0.215639830351152 0.1525089934136243 0  0.2146925137169349 0.1522074269297239 
[...]
<PointData  Scalars="f_19"> 
<DataArray  type="Float64"  Name="f_19"  format="ascii">5.0249474091817614e-01  4.8989371902700879e-01  0.0000000000000000e+00  0.0000000000000000e+00  -9.2568861439073336e-01  -4.6282051508558353e-01  -9.8960136289087908e-01  1.9773256508288806e+00  4.8979273920523853e-01  4.9009910119513223e-01  4.9145524197009438e-01  4.9461842772754988e-01  5.0013124486786764e-01  5.0849406300126831e-01  5.2008603818659671e-01  5.3513216211633585e-01  5.5368951404255973e-01  5.7565301885244324e-01  6.0072567733957571e-01  6.2848849771652338e-01  6.5794599544076360e-01  6.8833314341246044e-01  7.1870206670511827e-01  7.4731657893914094e-01  7.7310897868360473e-01  7.9506459468020940e-01  8.1139265573854780e-01  8.2137577121098970e-01  8.2433620640916816e-01  8.2085732480125362e-01  8.1026509270703795e-01  7.9379668521329194e-01  7.7157457617458070e-01  7.4565327669507486e-01  7.1724885994796261e-01  6.8725123998649051e-01  6.5738565304693042e-01  6.2872457560509210e-01  6.0192275332157041e-01  5.7789695720346490e-01  5.5722770534568711e-01  5.3996452415641261e-01  5.2636422204592426e-01  5.1627305050229266e-01  5.0923560034556425e-01  5.0506291748912746e-01  5.0292831123939730e-01  5.0243683731116739e-01  5.0199864042105968e-01  5.0114114323377656e-01  4.9949029027700870e-01  4.9664509075920543e-01  4.9231447417575752e-01  4.8591401015049690e-01  4.7698071910769191e-01  4.6464290746173414e-01  4.4910953415430244e-01  4.2808309564325947e-01  4.0224167040216607e-01  3.7033457921236379e-01  3.3371872387826851e-01  2.9319915310334022e-01  2.5056216807191717e-01  2.0973219217611216e-01  1.7491960231207376e-01  1.5142863912308346e-01  1.3721972861113502e-01  1.4319914189881588e-01  1.6036735268956595e-01  1.9338195195630603e-01  2.2778003166952532e-01  2.6213476029710803e-01  2.8969454112045673e-01  2.9470655488163761e-01  2.7676731234416208e-01  2.2502727559708463e-01  1.5835095617095557e-01  9.6692831147377339e-02  7.8064798035557811e-02  8.7792599161192281e-02  1.1449079001273398e-01  1.7135056221175524e-01  2.4968684261137286e-01  3.0650313279921287e-01  3.1534484869149659e-01  2.9224737218778085e-01  2.3020224778316262e-01  1.4801338402939401e-01  3.6154905422885859e-02  2.8015901099486080e-03  1.3750579177058908e-01  2.5580967851901226e-01  2.7425864099350922e-01  1.7887786620871329e-01  7.6193768146938902e-03  -6.5369118970626472e-02  5.5585319711188998e-02  1.7313162601000096e-01  1.5167548408990331e-01  4.2788378578509423e-02  -7.2309702978827023e-02  5.8531819464383798e-03  1.0890398291175737e-01  1.0808576982368381e-01  0.0000000000000000e+00  0.0000000000000000e+00  0.0000000000000000e+00  0.0000000000000000e+00  -1.1179792561675478e-01  -8.8483763977879867e-02  3.0425658216736724e-02  1.2977183748634363e-01  7.8334845749325616e-02  -5.2592921002964872e-02  -3.2876994877174971e-02  1.0226675383776508e-01  2.3330148676249113e-01  2.0068781744994255e-01  4.5105239007915583e-02  -4.1181826498735821e-02  3.6907131747217499e-02  1.8298612500087882e-01  2.8818275660646081e-01  3.1621600191370430e-01  2.6719206525044076e-01  1.3759472666605810e-01  5.5611206880923199e-02  7.9749946607666919e-02  1.4580594626029558e-01  2.1243264773827658e-01  2.7724746094672637e-01  3.3873405220689806e-01  3.7916496073248679e-01  3.8027222730475685e-01  3.3404955217821125e-01  2.5945432091877996e-01  1.7675007911659182e-01  1.0509600529223931e-01  5.7238806337854678e-02  4.1290174548453538e-02  4.3760056206976490e-02  5.7356675453104418e-02  7.5848520025563693e-02  9.9415985206985330e-02  1.2490148486123268e-01  1.5762123248988533e-01  1.9254356631382463e-01  2.3280775246745103e-01  2.7250022121476153e-01  3.1359892179226767e-01  3.5073008702344149e-01  3.8400274835543047e-01  4.1121359611901609e-01  4.3331764055721683e-01  4.5000612735588214e-01  4.6260485917177252e-01  4.7120493766935395e-01  4.7739262962567763e-01  4.8169547318694733e-01  4.8457639005446446e-01  4.8654700149061847e-01  4.8788783685580100e-01  4.8875101627421497e-01  4.8934422173569347e-01  -9.0905344524752008e-01  -8.9205653200949298e-01  -8.7459190494318073e-01  -8.5678295414016403e-01  -8.3861825244562249e-01  -8.2049948906716330e-01  -8.0202858742408445e-01  -7.8371045185204258e-01  -7.6554808364779148e-01  -7.4711789363570680e-01  -7.3001901131538172e-01  -7.1224854010221517e-01  -6.9520598369066422e-01  -6.7873858231527706e-01  -6.6272934542512374e-01  -6.4696151362370846e-01  -6.3204313061869932e-01  -6.1745367016444230e-01  -6.0353766182496282e-01  -5.9013109917060214e-01  -5.7739857667380468e-01  -5.6511527630953895e-01  -5.5342339222156345e-01  -5.4226506107906502e-01  -5.3164314732965989e-01  -5.2157856469069919e-01  -5.1200320284072476e-01  -5.0297261495325196e-01  -4.9439953385574409e-01  -4.8634471510038890e-01  -4.7873815275707310e-01  -4.7166750573315885e-01  -4.6507252185557019e-01  -4.5903243353728496e-01  -4.5348955521889323e-01  -4.4851353010771405e-01  -4.4411459484599147e-01  -4.4025135664929699e-01  -4.3698991318200853e-01  -4.3429029318069090e-01  -4.3217138877609262e-01  -4.3059840475832756e-01  -4.2956407593847495e-01  -4.2903905432161937e-01  -4.2898501512534776e-01  -4.2936858735695782e-01  -4.3013971768686099e-01  -4.3127067595647334e-01  -4.3270015500065639e-01  -4.3439357545235807e-01  -4.3628094387017630e-01  -4.3835707750327607e-01  -4.4054893565424474e-01  -4.4284084221033970e-01  -4.4517095580146510e-01  -4.4752520602682949e-01  -4.4984524298132811e-01  -4.5212666649807925e-01  -4.5433704814463516e-01  -4.5645484273660941e-01  -4.5842988636847359e-01  -4.6026173929542574e-01  -4.6193890313076341e-01  -4.6337028513548589e-01  -4.6460638107067487e-01  -4.6564165826310455e-01  -4.6647351262033693e-01  -4.6709106300966702e-01  -4.6752828409061853e-01  -4.6768256158549310e-01  -4.6763714396955891e-01  -4.6742237022640437e-01  -4.6703217996455898e-01  -4.6649555570930351e-01  -4.6584831056910875e-01  -4.6514189936430206e-01  -4.6436393186695918e-01  -4.6358635310116492e-01  -4.6211042562509036e-01  -4.6154337654260258e-01  -4.6115506299609660e-01  -4.6089030696896521e-01  -4.6089801213284137e-01  -4.6117856711682792e-01  -4.6168028876506134e-01  -4.6259233842051933e-01  -4.6381168462012651e-01  -4.6538132099794161e-01  -4.6733039345195626e-01  -4.6968476045071905e-01  -4.7242824290200874e-01  -4.7555242522456448e-01  -4.7909215444805264e-01  -4.8294833706694329e-01  -4.8722036349738734e-01  -4.9177188283207979e-01  -4.9665651242069858e-01  -5.0184001862813810e-01  -5.0725658130630580e-01  -5.1291924534593525e-01  -5.1875580685723655e-01  -5.2478199653086888e-01  -5.3086444142624545e-01  -5.3705018610380939e-01  -5.4324779587194227e-01  -5.4944091712535814e-01  -5.5565503190670895e-01  -5.6177027287605541e-01  -5.6782451970533709e-01  -5.7374325574664253e-01  -5.7954569562056946e-01  -5.8522691632742718e-01  -5.9074248702085319e-01  -5.9613924901461757e-01  -6.0140037866080098e-01  -6.0652130058294584e-01  -6.1157151424166045e-01  -6.1650633830736834e-01  -6.2142735888599554e-01  -6.2635661336393356e-01  -6.3127910945814814e-01  -6.3623648503746377e-01  -6.4134658678669232e-01  -6.4660509718508474e-01  -6.5207900317622458e-01  -6.5773020526078163e-01  -6.6370973454839177e-01  -6.7001102294538606e-01  -6.7657146514991218e-01  -6.8350227660367324e-01  -6.9102753396175476e-01  -6.9885165082617362e-01  -7.0698445280475974e-01  -7.1569238749270025e-01  -7.2492665094620157e-01  -7.3449727840906465e-01  -7.4439451973171600e-01  -7.5491161538248563e-01  -7.6579252849752222e-01  -7.7711378148511134e-01  -7.8897442678571150e-01  -8.0101594982589619e-01  -8.1323762017481960e-01  -8.2596279012730534e-01  -8.3904073828764003e-01  -8.5211274190493225e-01  -8.6549630262239508e-01  -8.7885343935364935e-01  -8.9224600942127175e-01  -9.0548925129646363e-01  -9.1870544023188261e-01  -9.3173180292307578e-01  -9.4441219513678953e-01  -9.5660133203357778e-01  -9.6824482691831182e-01  -9.7924291876494107e-01  -9.9911342153722837e-01  -1.0077130194044999e+00  -1.0151806515761188e+00  -1.0210838512299409e+00  -1.0259573507226671e+00  -1.0298365337051920e+00  -1.0318045276583483e+00  -1.0321216748369146e+00  -1.0307298431818639e+00  -1.0275865510833633e+00  -1.0225934030004304e+00  -1.0154946510123357e+00  -1.0063950875450181e+00  -9.9500430327757039e-01  -9.8147767657469520e-01  -9.6556597870582095e-01  -9.4748065149153948e-01  -9.2684825439461749e-01  -9.0406834578175765e-01  -8.7883380134268452e-01  -8.5124745806622981e-01  -8.2118023653218952e-01  -7.8828021546921601e-01  -7.5336558746707583e-01  -7.1611584639708092e-01  -6.7620403172780219e-01  -6.3478390904126258e-01  -5.8992807595140595e-01  -5.4342992233435072e-01  -4.9483721284919396e-01  -4.4409643401135573e-01  -3.9110075756562940e-01  -3.3651584380798177e-01  -2.7993299280782352e-01  -2.2142873282395145e-01  -1.6159118786845728e-01  -9.9918576408884366e-02  -3.7263269939125994e-02  2.6851301949463734e-02  9.2420054915565555e-02  1.5887734934415884e-01  2.2594058666235500e-01  2.9403133092338529e-01  3.6280945733641035e-01  4.3177593543302728e-01  5.0122904744883534e-01  5.7072505728561806e-01  6.4009964157542909e-01  7.0950778889692112e-01  7.7858480529677665e-01  8.4717166342961914e-01  9.1497773288177486e-01  9.8214164491537792e-01  1.0481480907461007e+00  1.1131873420103300e+00  1.1770446036006779e+00  1.2394461072293592e+00  1.2997594939761306e+00  1.3589325062947786e+00  1.4158071265110062e+00  1.4704588231938789e+00  1.5233460753395927e+00  1.5738718501425164e+00  1.6217852840735134e+00  1.6670207382420759e+00  1.7098047593577157e+00  1.7499049285274422e+00  1.7866522409321794e+00  1.8207185697416384e+00  1.8515654426712809e+00  1.8792198799739099e+00  1.9036093699382373e+00  1.9247318007246270e+00  1.9420696356896197e+00  1.9561837178586576e+00  1.9667818642160864e+00  1.9743486956947411e+00  1.9775708566208778e+00  1.9738591856937100e+00  1.9667137127921628e+00  1.9560519780696315e+00  1.9419158260986471e+00  1.9241692173776070e+00  1.9031399154309241e+00  1.8781382233850936e+00  1.8501948823494800e+00  1.8190690122547895e+00  1.7846812507476753e+00  1.7473195172571552e+00  1.7067442166792826e+00  1.6635579016405155e+00  1.6176490728926025e+00  1.5687573010274571e+00  1.5176158656902281e+00  1.4637557321828334e+00  1.4077228815866860e+00  1.3495211831175058e+00  1.2889915570726675e+00  1.2276117871251511e+00  1.1640681088891207e+00  1.0986225340592219e+00  1.0322295990257981e+00  9.6445121277711399e-01  8.9587806790309898e-01  8.2623991723303414e-01  7.5588861221836423e-01  6.8539163175355911e-01  6.1418424868762755e-01  5.4284743248291012e-01  4.7174289628340826e-01  4.0063797916741178e-01  3.2978515438719552e-01  2.5945542445515424e-01  1.9000576917166923e-01  1.2115867409442538e-01  5.3147432782828158e-02  -1.3720150404291118e-02  -7.8968571675730903e-02  -1.4298359796643215e-01  -2.0566531807852489e-01  -2.6637486955722917e-01  -3.2560971674963540e-01  -3.8307262254143565e-01  -4.3816244693004536e-01  -4.9093630940610183e-01  -5.4197227302199724e-01  -5.9046034744742404e-01  -6.3676563768279881e-01  -6.8040819099875649e-01  -7.2158311355493976e-01  -7.6034536859871915e-01  -7.9642707381243083e-01  -8.2986706317303460e-01  -8.6133304928429699e-01  -8.8873718135347812e-01  -9.1443569321904605e-01  -9.3729598531839164e-01  -9.5759250029040810e-01  -9.7512194553064147e-01  -9.9009285619180931e-01  -1.0029243013418141e+00  -1.0127983423472393e+00  -1.0203684709496774e+00  -1.0255067572225016e+00  -1.0284961975672777e+00  -1.0292557470177262e+00  -1.0279398190009161e+00  -1.0248407603368657e+00  -1.0195103605407381e+00  -1.0126292070893277e+00  -1.0041262085924929e+00  -9.9332950122812513e-01  -9.8299694027297679e-01  -9.6965505229534721e-01  -9.5587736119891398e-01  -9.4114639340498951e-01  5.4188100889709034e-01  2.6966766135105164e-01  9.5264489644641204e-01  9.2102706004267398e-01  4.5349786390379065e-01  -8.0157235321693028e-04  -4.1108084987299182e-01  1.1275366139038663e-01  -8.0683605006533807e-02  -2.4945018117260914e-01  7.3342605681208806e-01  1.9155696428627775e-01  7.5113379497283450e-01  2.3058912745922552e-01  -6.5630510487613136e-01  1.3294128296500132e+00  1.2727646609521825e+00  -1.4541193024123719e-01  -2.9400081101132092e-01  1.2275127407598172e+00  -3.6614125670142200e-01  -6.0530459375311985e-01  -2.2370314403964958e-01  -3.6469393197478728e-01  -5.5556927817959334e-01  4.2442232897174925e-01  8.1348006309039911e-01  1.7307267175890112e-01  -2.8602065131217896e-01  1.6426109549427657e+00  -1.5296994770886546e-01  -4.4480596810897810e-01  9.5638402257072030e-01  1.6366150399035060e+00  -5.1092989514021081e-01  1.5173427545893574e+00  -4.8572068883754144e-01  -3.9894170556891079e-01  1.2784009697251331e+00  -5.5552718948656399e-01  -6.0563041031987841e-01  -6.0514097234314379e-01  -5.2114418520859240e-01  -3.9372821005068731e-01  -4.6908071559622394e-01  -6.3891013907198702e-01  4.1742455227763581e-01  -1.2590014961876478e-01  3.6844154501754972e-01  9.7306208321140852e-01  -4.7784158911576657e-01  -5.4076360023288439e-01  1.8368674508195353e+00  1.1885373562368411e+00  8.0575191702226956e-01  -1.7602226577872140e-01  -5.2140737879481136e-01  5.9424350887517152e-01  -7.6584923160343366e-01  -7.7700603948434555e-01  -7.1445422491117117e-01  1.8149435238256033e+00  -6.5291984709485962e-01  -6.6165341200346195e-01  -6.1808726841309958e-01  -5.6675739094964939e-01  -7.4364926605283432e-01  7.3205664096072251e-02  1.5934720816487613e+00  7.1192812201319600e-01  6.6121378869193892e-01  -4.3722931179211144e-01  -5.9044603427903719e-01  -5.9845054999428660e-01  -4.6952904239464627e-01  -4.5979151657223438e-01  -4.3393338795906916e-01  -4.1430675064796191e-01  -8.5355331179049276e-01  2.9293332801039233e-02  1.8169562600913844e+00  5.1874388119278381e-01  -5.4694562139266689e-01  -4.9092510698318853e-01  -7.3103335188545371e-01  -8.9421147710340954e-01  1.4815581793939214e+00  -4.6676548666900741e-01  7.3285483609446078e-01  1.3216720055430917e+00  -5.3646712247688644e-01  5.0254863728511401e-01  4.2750406496670729e-01  6.9810741398732179e-01  -8.6903934853015188e-03  1.1319456179824532e+00  9.6894812223204640e-01  -4.2786748673918124e-01  8.2183014774320051e-01  1.1655884161797094e+00  8.3928261184308828e-01  -8.9768082595372012e-01  -5.0869858465953233e-01  3.4369539373560479e-02  4.2905609048650944e-01  4.1339995924757247e-02  -5.3818856434502871e-01  7.3495356542950607e-01  -6.4182639075354153e-01  -4.7042368109624466e-01  1.3506747132241531e-01  4.8111989543983119e-01  9.6038332268132975e-01  2.2716113584734549e-02  3.0758342817834272e-01  1.9051690418226559e+00  4.7865345496325307e-01  2.4762049964281166e-01  -1.5476648868850307e-02  -6.1907987377528251e-01  1.6863779039275595e+00  2.7618779350526174e-01  -7.9639246958863330e-01  4.6381788391901901e-01  9.8118435965053352e-01  -8.1774909213718772e-01  -5.1407307923293888e-01  -8.3563751079369553e-01  -1.7015662906969672e-01  1.4993417241618066e+00  9.8116954022525915e-01  -4.4275491263924771e-01  -4.5559015419089849e-01  -7.1042286400075683e-01  9.6725826040401008e-01  -2.7113267707724809e-01  -9.0023131232463294e-01  1.3704706703739895e+00  -5.3113180644223146e-01  -6.8070503441528807e-01  5.0681741990192541e-01  -9.3467236355750682e-01  -8.4903272318053780e-01  1.2356834776299124e+00  1.0983479792742692e+00  -6.1332717869203279e-01  5.1706945207035648e-01  -1.2759106232511360e-02  -8.7032366716290477e-01  -4.6134464158440269e-01  7.4716668591234492e-01  9.4991775572570880e-01  1.7211585325888141e+00  1.9124084535301336e+00  1.2616268230391461e+00  3.6488181178892065e-01  2.2313157466271638e-01  -5.8897174557115663e-02  5.1322276103215769e-01  -2.1274709914153622e-01  -5.9833231912123297e-01  -5.7458135980637148e-01  -2.5029544095947631e-01  6.4815362916125052e-01  -4.6677492330204667e-01  -5.0620825364354471e-01  -3.2492303300772368e-01  -2.9627509829506533e-02  1.5257030571562062e+00  5.5683787965713261e-01  5.5583045583182256e-01  -9.5974563030943882e-01  1.4857124271565996e+00  -4.2879005019404015e-01  -4.6320751846813063e-01  4.1187559954601105e-01  1.8732134407857790e+00  6.0631209281290177e-01  -3.5012775074542541e-03  1.6840286233790733e+00  -7.6823800594205871e-01  7.8535200808270045e-01  6.6743028260421489e-01  -4.8561017360985209e-01  7.3569874505966004e-01  8.5333573507181681e-01  1.0949640018709490e+00  -1.1154364835513557e+00  -5.0659427377989376e-02  -7.4544888515523833e-01  -7.8428477236072644e-02  4.8954564691244107e-01  1.0301529067091195e+00  -7.6969489853096418e-01  1.3050972224817612e+00  5.7674779717343905e-01  1.6563287710531711e+00  -6.6922560823618837e-01  2.3252946005054975e-01  6.1928785515503511e-03  1.3944871502546363e-01  -3.5861789710481567e-01  -1.1917092913476849e-02  9.5506942692550523e-01  3.7777722211262160e-01  -4.2841540448477128e-01  -9.7307017373642413e-01  -9.5582395491609784e-01  5.7743535108146493e-01  6.3086553787447586e-01  -4.4890327863324681e-01  -7.9640240025444475e-01  -5.6794554223232863e-01  -5.2163121817214397e-01  3.9268754024322555e-01  1.4842010807736434e+00  -4.4921564177649370e-01  7.9210471118260994e-01  -4.7173331759058114e-02  1.4253098355051839e+00  7.2619006183808732e-01  -5.5183816664617336e-01  -5.2431185442727624e-01  8.3334531373229548e-01  -5.2259224502346147e-01  1.7613412533717914e+00  1.6128146379549882e-01  -9.6641828817126696e-01  -4.6618540083083793e-01  -2.6081004094207810e-01  1.9565974385090126e-01  -4.6585521199868773e-01  2.8808922876883863e-01  -5.9768827156510143e-04  1.1627253591107631e+00  1.1452484214601057e+00  1.8980311773232639e-01  6.7096011739803008e-01  1.0116481003502407e+00  7.7231569803922040e-02  1.5338592981382952e+00  1.1998407498267558e-01  1.8565134954994167e+00  7.2299338654029199e-01  -4.2991718886278235e-01  2.8631439127964220e-01  -6.3210995543878135e-01  2.7486264611242522e-01  1.4865370474554640e+00  -4.7286553466988612e-01  1.6621688206042813e+00  1.1413592162469468e+00  1.8670836793707621e-01  -4.9581892900046826e-01  -7.0024451847125924e-01  1.1381993318867298e+00  -6.0734160484710420e-01  -4.3292452233641321e-01  9.5617979987932228e-02  4.4402743266617445e-01  -4.2539250539960903e-02  2.1409192742709884e-01  8.6232818375519349e-01  7.6446922723302738e-02  7.8433686377209455e-01  8.4513905521794919e-01  -3.0961073282147805e-01  1.9440012711777348e+00  -6.3452344791736959e-01  9.1227265761757503e-01  -8.8340409073921655e-02  -2.7791925570855552e-01  9.8305857469333860e-02  -3.1618252310288203e-01  6.2361381289529949e-01  4.7399083089751892e-01  -2.7090878750802966e-01  -1.5693910637620545e-01  7.3271462748691385e-01  1.3709529842822215e+00  -4.3806291775043182e-01  1.8079177520856080e+00  9.9814865048466872e-02  -5.2580541130662706e-01  4.8293821906548705e-02  5.7213266851769395e-01  1.0253054747017298e+00  2.1259707661367569e-01  -4.2833236317119150e-01  9.8248144839577778e-01  4.7940753935038527e-01  3.9094684566490151e-01  8.1131905313226993e-01  4.2244640216154766e-01  -5.6876300623783926e-01  9.8553368706704425e-01  1.0668206415452042e+00  -5.1464235848898954e-01  4.0192934465761521e-01  1.7601660660233021e+00  -4.5418866743450426e-01  -8.4810886921783757e-01  -9.2163783991416626e-01  1.0885544480514455e+00  -6.2927049850906969e-01  1.3910990141400841e+00  6.7815153950054097e-01  -5.8187619758713227e-01  -4.9370522080783363e-01  -8.7851379354713510e-01  -6.9927804749261058e-01  1.1643319290751949e-01  -8.8228259267923514e-01  -9.5194275071348256e-01  6.1824397723652358e-01  -2.0557639385543872e-01  2.0253217387542211e-01  1.0639046556037917e+00  8.9799567880898956e-01  1.2780350922058776e+00  -2.0127036458840550e-01  1.2402382870127224e+00  1.4013106908862218e+00  5.0185445573809284e-01  4.9059270267495092e-01  5.1547176262533956e-01  3.5637479676120537e-01  -6.1189577918480531e-01  -5.8147300981951133e-01  1.9333904044489210e+00  -2.8202291575304222e-01  -3.7947788591855575e-01  6.5018221518383401e-01  -1.6941260228762470e-02  -2.6345859775215964e-02  -1.5452804359567079e-01  -6.5563435429226891e-01  