<?xml version="1.0"?>
<VTKFile type="UnstructuredGrid"  version="0.1"  >
<UnstructuredGrid>
<Piece  NumberOfPoints="5712" NumberOfCells="10893">
<Points>
<DataArray  type="Float64"  NumberOfComponents="3"  format="ascii">0 0 0  0 0.41 0  2.2 0 0  2.2 0.41 0  0.2 0.25 0  0.25 0.2 0  0.2 0.15 0  0.15 0.2 0  0 0.3904761904762147 0  0 0.3709523809524729 0  0 0.3514285714286954 0  0 0.3319047619049458 0  0 0.3123809523811823 0  0 0.2928571428574404 0  0 0.2733333333336768 0  0 0.2538095238099349 0  0 0.2342857142861567 0  0 0.2147619047624078 0  0 0.1952380952385999 0  0 0.1757142857147328 0  0 0.1561904761908952 0  0 0.1366666666670465 0  0 0.1171428571431906 0  0 0.09761904761931661 0  0 0.0780952380954425 0  0 0.05857142857161174 0  0 0.03904761904773757 0  0 0.01952380952386334 0  0.01986745845578998 0 0  0.03982462845278956 0 0  0.05987191195217309 0 0  0.0800097046343772 0 0  0.1002384394563812 0 0  0.1205585077310739 0 0  0.1409703274044529 0 0  0.1614743126654433 0 0  0.1820708739963059 0 0  0.2027604497544275 0 0  0.2235434355718665 0 0  0.2444202633435119 0 0  0.265391361068545 0 0  0.2864571529028895 0 0  0.3076180592107884 0 0  0.3288745151942862 0 0  0.3502269459367295 0 0  0.3716757933139423 0 0  0.3932214934733583 0 0  0.4148644812710909 0 0  0.4366051859408088 0 0  0.4584440653716539 0 0  0.48038154995608 0 0  0.5024180900849111 0 0  0.5245541321026944 0 0  0.5467901197490906 0 0  0.5691265226973262 0 0  0.5915637755827025 0 0  0.614102339850345 0 0  0.636742674167927 0 0  0.6594852330945143 0 0  0.6823304884387933 0 0  0.7052788907288091 0 0  0.7283309147437839 0 0  0.751487030986726 0 0  0.7747477057419434 0 0  0.7981134011315298 0 0  0.821584610595033 0 0  0.8451617959659341 0 0  0.8688454391891771 0 0  0.8926360178861791 0 0  0.9165340281873645 0 0  0.9405399372917173 0 0  0.9646542424736072 0 0  0.9888774365267383 0 0  1.013210007824441 0 0  1.037652440378865 0 0  1.06220524733373 0 0  1.086868914509785 0 0  1.111643945154348 0 0  1.136530838720734 0 0  1.161530116277625 0 0  1.186642266933783 0 0  1.211867807739771 0 0  1.237207251805963 0 0  1.26266110764717 0 0  1.288229902058941 0 0  1.313914143782356 0 0  1.339714360040014 0 0  1.36563107331828 0 0  1.391664802767304 0 0  1.417816093074858 0 0  1.444085461454821 0 0  1.470473442759746 0 0  1.496980573539167 0 0  1.523607398041112 0 0  1.550354449227912 0 0  1.577222271446548 0 0  1.60421140927435 0 0  1.631322413213628 0 0  1.658555830029694 0 0  1.685912218634225 0 0  1.713392126884173 0 0  1.740996123438425 0 0  1.768724751279777 0 0  1.796578588883932 0 0  1.824558192783585 0 0  1.852664140769835 0 0  1.880896988683294 0 0  1.909257322654582 0 0  1.93774570990443 0 0  1.966362727809846 0 0  1.995108970713317 0 0  2.023985006033532 0 0  2.052991427225145 0 0  2.082128822851723 0 0  2.111397799134646 0 0  2.140798904430552 0 0  2.170332790993664 0 0  2.2 0.02928571428565775 0  2.2 0.05857142857131794 0  2.2 0.08785714285694929 0  2.2 0.1171428571425731 0  2.2 0.1464285714282011 0  2.2 0.1757142857138497 0  2.2 0.2049999999994743 0  2.2 0.2342857142852724 0  2.2 0.2635714285710462 0  2.2 0.2928571428568132 0  2.2 0.3221428571426234 0  2.2 0.3514285714283903 0  2.2 0.3807142857142005 0  2.170332790993718 0.41 0  2.140798904430656 0.41 0  2.111397799134855 0.41 0  2.082128822859404 0.41 0  2.052991427232898 0.41 0  2.023985006041361 0.41 0  1.99510897072121 0.41 0  1.966362727817755 0.41 0  1.937745709912357 0.41 0  1.90925732266254 0.41 0  1.880896988691295 0.41 0  1.852664140777879 0.41 0  1.824558192791673 0.41 0  1.79657858889206 0.41 0  1.768724751287952 0.41 0  1.740996123446639 0.41 0  1.713392126892427 0.41 0  1.685912218642533 0.41 0  1.658555830038071 0.41 0  1.631322413222075 0.41 0  1.604211409282859 0.41 0  1.577222271455122 0.41 0  1.55035444923655 0.41 0  1.523607398049813 0.41 0  1.496980573547932 0.41 0  1.470473442768574 0.41 0  1.444085461463712 0.41 0  1.417816093083807 0.41 0  1.391664802776313 0.41 0  1.365631073327341 0.41 0  1.339714360049107 0.41 0  1.31391414379148 0.41 0  1.288229902068097 0.41 0  1.262661107656355 0.41 0  1.237207251815179 0.41 0  1.211867807749015 0.41 0  1.186642266943055 0.41 0  1.161530116286924 0.41 0  1.13653083873006 0.41 0  1.111643945163706 0.41 0  1.086868914519036 0.41 0  1.062205247342763 0.41 0  1.037652440387677 0.41 0  1.013210007833036 0.41 0  0.9888774365351134 0.41 0  0.9646542424817568 0.41 0  0.9405399372996428 0.41 0  0.916534028195068 0.41 0  0.8926360178936621 0.41 0  0.8688454391964415 0.41 0  0.8451617959729809 0.41 0  0.8215846106018625 0.41 0  0.7981134011381465 0.41 0  0.7747477057483507 0.41 0  0.7514870309929218 0.41 0  0.7283309147497725 0.41 0  0.7052788907345926 0.41 0  0.6823304884443711 0.41 0  0.6594852330998913 0.41 0  0.6367426741731019 0.41 0  0.6141023398553211 0.41 0  0.5915637755874821 0.41 0  0.5691265227019089 0.41 0  0.5467901197534788 0.41 0  0.5245541321068876 0.41 0  0.5024180900889137 0.41 0  0.4803815499598949 0.41 0  0.458444065375283 0.41 0  0.4366051859442526 0.41 0  0.4148644812743503 0.41 0  0.3932214934764355 0.41 0  0.3716757933168389 0.41 0  0.3502269459394474 0.41 0  0.3288745151968251 0.41 0  0.3076180592131517 0.41 0  0.2864571529050777 0.41 0  0.2653913610705745 0.41 0  0.2444202633453989 0.41 0  0.2235434355736121 0.41 0  0.202760449756034 0.41 0  0.1820708739977555 0.41 0  0.1614743126667344 0.41 0  0.140970327405586 0.41 0  0.120558507732039 0.41 0  0.1002384394571796 0.41 0  0.08000970463500767 0.41 0  0.05987191195264252 0.41 0  0.03982462845310097 0.41 0  0.01986745845594617 0.41 0  0.2009941093832422 0.2499901164885035 0  0.2019878257548352 0.2499604698613656 0  0.2029807562584742 0.2499110718390977 0  0.2039725083485626 0.2498419419507366 0  0.2049626899453778 0.2497531075261239 0  0.2059509095900689 0.2496446036851018 0  0.2069367765994233 0.2495164733236293 0  0.2079199012203332 0.2493687670968211 0  0.208899894783849 0.2492015433989262 0  0.209876369858873 0.2490148683402368 0  0.2108489404052936 0.2488088157209575 0  0.2118172219266183 0.248583467002027 0  0.2127808316219855 0.248338911272912 0  0.2137393885375067 0.2480752452163837 0  0.2146925137168532 0.2477925730703012 0  0.2156398303510693 0.247491006586403 0  0.2165809639275547 0.2471706649861239 0  0.2175155423781385 0.2468316749134561 0  0.2184431962261471 0.2464741703848905 0  0.2193635587324768 0.2460982927364335 0  0.2202762660405913 0.2457041905677276 0  0.2211809573203641 0.2452920196833053 0  0.2220772749107273 0.2448619430309942 0  0.2229648644610677 0.2444141306374986 0  0.2238433750713457 0.2439487595411649 0  0.2247124594307593 0.2434660137220228 0  0.2255717739550953 0.2429660840290282 0  0.2264209789225549 0.2424491681046155 0  0.227259738608055 0.2419154703065648 0  0.2280877214159585 0.2413652016272072 0  0.2289046000111568 0.2407985796100187 0  0.2297100514485014 0.2402158282636004 0  0.2305037573004443 0.2396171779731418 0  0.2312854037829426 0.2390028654093291 0  0.2320546818795267 0.2383731334347658 0  0.2328112874634348 0.2377282310079845 0  0.2335549214178666 0.2370684130850081 0  0.2342852897542382 0.2363939405185524 0  0.23500210372839 0.2357050799549172 0  0.2357050799547543 0.2350021037285561 0  0.236393940518396 0.2342852897544042 0  0.2370684130848552 0.2335549214180355 0  0.2377282310078377 0.2328112874636036 0  0.2383731334346237 0.2320546818796969 0  0.2390028654091947 0.2312854037831102 0  0.2396171779730177 0.2305037573006055 0  0.2402158282634863 0.2297100514486559 0  0.2407985796099098 0.2289046000113105 0  0.2413652016271038 0.2280877214161108 0  0.2419154703064672 0.2272597386082051 0  0.2424491681045289 0.2264209789226942 0  0.2429660840289533 0.2255717739552211 0  0.2434660137219522 0.2247124594308835 0  0.2439487595410967 0.2238433750714713 0  0.2444141306374335 0.2229648644611936 0  0.2448619430309386 0.2220772749108404 0  0.2452920196832561 0.2211809573204692 0  0.2457041905676833 0.2202762660406911 0  0.2460982927363924 0.2193635587325747 0  0.246474170384854 0.2184431962262392 0  0.2468316749134214 0.2175155423782314 0  0.2471706649860917 0.216580963927646 0  0.2474910065863757 0.215639830351152 0  0.2477925730702761 0.2146925137169349 0  0.2480752452163603 0.2137393885375889 0  0.2483389112728914 0.2127808316220633 0  0.248583467002012 0.2118172219266803 0  0.2488088157209458 0.2108489404053462 0  0.2490148683402261 0.2098763698589259 0  0.249201543398917 0.2088998947838999 0  0.2493687670968142 0.2079199012203759 0  0.2495164733236233 0.2069367765994661 0  0.2496446036850975 0.205950909590105 0  0.2497531075261207 0.2049626899454101 0  0.2498419419507343 0.2039725083485922 0  0.2499110718390968 0.2029807562584889 0  0.2499604698613655 0.2019878257548365 0  0.2499901164885035 0.2009941093832422 0  0.2499901164885035 0.1990058906167579 0  0.2499604698613656 0.1980121742451648 0  0.2499110718390977 0.1970192437415259 0  0.2498419419507366 0.1960274916514374 0  0.2497531075261239 0.1950373100546222 0  0.2496446036851018 0.1940490904099311 0  0.2495164733236293 0.1930632234005767 0  0.2493687670968211 0.1920800987796668 0  0.2492015433989262 0.191100105216151 0  0.2490148683402368 0.190123630141127 0  0.2488088157209575 0.1891510595947065 0  0.248583467002027 0.1881827780733817 0  0.248338911272912 0.1872191683780146 0  0.2480752452163837 0.1862606114624933 0  0.2477925730703012 0.1853074862831468 0  0.247491006586403 0.1843601696489307 0  0.2471706649861239 0.1834190360724454 0  0.2468316749134561 0.1824844576218615 0  0.2464741703848905 0.181556803773853 0  0.2460982927364335 0.1806364412675232 0  0.2457041905677276 0.1797237339594087 0  0.2452920196833053 0.1788190426796359 0  0.2448619430309942 0.1779227250892727 0  0.2444141306374986 0.1770351355389324 0  0.2439487595411649 0.1761566249286543 0  0.2434660137220228 0.1752875405692407 0  0.2429660840290282 0.1744282260449047 0  0.2424491681046155 0.1735790210774451 0  0.2419154703065648 0.172740261391945 0  0.2413652016272072 0.1719122785840415 0  0.2407985796100187 0.171095
[...]
<PointData  Scalars="f_19"> 
<DataArray  type="Float64"  Name="f_19"  format="ascii">5.7039501555050576e-01  4.1537161670716594e-01  0.0000000000000000e+00  0.0000000000000000e+00  -1.2094331428113678e+00  -4.4745513453078056e-01  -7.1849462843178780e-01  1.9766006997203607e+00  4.1547154751951199e-01  4.2089539129566189e-01  4.3675728597751090e-01  4.6608286911943242e-01  5.1081773904475192e-01  5.6858115270685072e-01  6.3554533539056479e-01  7.0410551196893678e-01  7.6498971183434394e-01  8.0770956450235920e-01  8.2513854861359937e-01  8.1676769434457963e-01  7.8581828741881454e-01  7.4041622267579221e-01  6.9122790856532168e-01  6.4606956935513515e-01  6.1060086775757949e-01  5.8700037508062386e-01  5.7434667920778437e-01  5.7041497742244018e-01  5.6927768741369744e-01  5.6720570905728840e-01  5.6357709921895716e-01  5.5747595071282741e-01  5.4762573731575392e-01  5.3217902523626104e-01  5.0945134378714407e-01  4.7847983123825771e-01  4.3961625963955359e-01  3.9496317645735413e-01  3.4790388550717694e-01  3.0236012513682137e-01  2.6016870939905229e-01  2.2390909573319656e-01  1.9289837368097745e-01  1.6595788078618268e-01  1.4170381149495276e-01  1.1837159222180421e-01  9.3077099586712522e-02  6.5555071699460885e-02  3.9961087000353113e-02  2.2933692203534764e-02  2.0876841758595239e-02  3.6634949475470892e-02  7.1574353725923565e-02  1.2146471725234448e-01  1.8018967452064438e-01  2.3688852474378477e-01  2.8654783193799821e-01  3.2300973217697948e-01  3.4338252429620481e-01  3.5088950386130030e-01  3.4125764791151308e-01  3.2350567305143052e-01  2.9744318789080854e-01  2.7049105629317327e-01  2.3940181146846129e-01  2.0069792783063373e-01  1.5669381471975036e-01  1.0963761526485215e-01  6.7862810854604855e-02  4.0485443461611433e-02  4.0803411638932786e-02  7.3477244870543190e-02  1.3059008477794326e-01  1.9630747545825669e-01  2.5013360650328825e-01  2.8648470203742693e-01  3.0442576193406629e-01  2.9254608681394367e-01  2.7235241937506766e-01  2.3369060976264047e-01  1.8364419655161981e-01  1.2012042962688482e-01  5.3683946928832556e-02  -7.6991188337440742e-03  -4.5414183638830985e-02  -4.7335937530030507e-02  -1.5383315740612236e-02  3.9228121282761139e-02  9.8423193665500577e-02  1.5165085656806876e-01  1.8739866910085293e-01  2.0554229418049139e-01  2.0746515051613801e-01  1.8389970733166833e-01  1.4796293372542887e-01  9.6731214563966633e-02  3.9936309747508704e-02  -1.6824875865341312e-02  -5.7716898768887442e-02  -7.7855855452348008e-02  -7.3358919800891292e-02  -4.0133120409397358e-02  3.1414567305612269e-03  4.8277632143383577e-02  8.8894266661789845e-02  1.1357521244279604e-01  1.2116010128366225e-01  1.0971746265561896e-01  8.3091674901989376e-02  4.2324182840975492e-02  -6.8407255029341533e-03  -5.1847863971785049e-02  -8.9272562359608079e-02  -1.0607087878438941e-01  -9.8142060268954529e-02  -6.9066423328514620e-02  -3.3165772271876497e-02  0.0000000000000000e+00  0.0000000000000000e+00  0.0000000000000000e+00  0.0000000000000000e+00  0.0000000000000000e+00  0.0000000000000000e+00  0.0000000000000000e+00  0.0000000000000000e+00  0.0000000000000000e+00  0.0000000000000000e+00  0.0000000000000000e+00  0.0000000000000000e+00  0.0000000000000000e+00  3.4328172484398414e-02  6.5576417314005458e-02  9.0555995537713402e-02  9.9779704224943144e-02  9.5953723629761720e-02  7.4531935249980225e-02  4.0038867171204376e-02  -2.0672229260077282e-04  -4.1612515935279704e-02  -6.8498693390973697e-02  -7.5019101038177230e-02  -6.2572996639936498e-02  -2.4248401599747650e-02  2.2346483792632120e-02  7.3282623017461412e-02  1.1554013867685381e-01  1.4736082278417487e-01  1.6227383314920438e-01  1.5914664273039017e-01  1.3895615425997720e-01  1.0079581165168712e-01  5.3654580462977844e-02  2.8818863588659840e-03  -3.6216107680431354e-02  -6.1537047315100638e-02  -4.6901282315230101e-02  -1.0504256475307663e-02  4.6866882425942065e-02  1.1538121401950430e-01  1.7858862724286731e-01  2.3027193619218489e-01  2.6323464428183513e-01  2.7131249513841715e-01  2.5792603209511034e-01  2.2008917184203730e-01  1.6382478736672568e-01  9.0317557288959821e-02  2.0610684928492020e-02  -2.3364927008743954e-02  -2.2940907065495553e-02  6.7692129251085212e-03  6.4296118587334181e-02  1.2134063436315674e-01  1.6990624128046136e-01  2.1358972651036090e-01  2.4930205359976729e-01  2.8079784042948674e-01  3.0160407013822638e-01  3.1427922469812286e-01  3.1125181025975523e-01  2.9046550594305931e-01  2.5585102669671245e-01  2.0676225570256065e-01  1.5957545306510490e-01  1.2260425863968770e-01  1.0123759567394759e-01  9.2828605477589643e-02  9.2870741827898284e-02  9.8095840714749166e-02  1.1461217618722710e-01  1.4608326251749015e-01  1.9126378082026280e-01  2.4324328219620872e-01  2.9114529680317613e-01  3.3126676837104924e-01  3.4904778114721885e-01  3.4886790155509728e-01  3.3178575654380671e-01  2.9756789595624122e-01  2.5743099628179156e-01  2.0634554812305911e-01  1.6058915223887049e-01  1.1747427244643582e-01  8.5565830662262046e-02  6.6823128462368403e-02  6.1759299075386055e-02  7.2611168598992235e-02  9.6452429708360085e-02  1.3192030317210082e-01  1.7659132457940951e-01  2.2378251127228951e-01  2.7016710026115504e-01  3.1186222744123049e-01  3.4699029507567070e-01  3.7207786546060362e-01  3.9181025120409241e-01  4.0339833917319967e-01  4.1162386717894889e-01  4.1397350928188331e-01  -1.1980241233101632e+00  -1.1858093701962615e+00  -1.1728942253306460e+00  -1.1593630906691692e+00  -1.1452293654657251e+00  -1.1305427361080780e+00  -1.1156072968721933e+00  -1.1004142002576851e+00  -1.0851676775344985e+00  -1.0698874154221794e+00  -1.0546475010751788e+00  -1.0393640634388037e+00  -1.0245560498322719e+00  -1.0097069460344634e+00  -9.9508095643911532e-01  -9.8088778764426754e-01  -9.6702189147855566e-01  -9.5363394494952580e-01  -9.4058640373504521e-01  -9.2805021122569542e-01  -9.1601874749309364e-01  -9.0454829426192240e-01  -8.9343530051235120e-01  -8.8278032905711845e-01  -8.7271340596179947e-01  -8.6312474190977451e-01  -8.5410133540404920e-01  -8.4556086417110399e-01  -8.3755640504812590e-01  -8.2999414919043935e-01  -8.2301505358347904e-01  -8.1645092438276423e-01  -8.1025138184513468e-01  -8.0453048560668783e-01  -7.9920777426800749e-01  -7.9418186786822642e-01  -7.8948605746713663e-01  -7.8502729541262894e-01  -7.8072543548757056e-01  -7.7657745983154747e-01  -7.7249863849377665e-01  -7.6845610984362689e-01  -7.6437040761632224e-01  -7.6019044439960948e-01  -7.5583408718839551e-01  -7.5133774090374228e-01  -7.4652833573822608e-01  -7.4139884348215279e-01  -7.3602698978331349e-01  -7.3019371932337529e-01  -7.2407398353478225e-01  -7.1744137953431319e-01  -7.1042320883602950e-01  -7.0292890955299037e-01  -6.9503349254037494e-01  -6.8664149732152691e-01  -6.7786988980882634e-01  -6.6865664415475867e-01  -6.5905720350993546e-01  -6.4906500116682853e-01  -6.3879041410165704e-01  -6.2817382294279644e-01  -6.1733950022313200e-01  -6.0626330018181007e-01  -5.9507408867137523e-01  -5.8373378574505108e-01  -5.7236062944844501e-01  -5.6098284535511422e-01  -5.4958779563143600e-01  -5.3833015098640391e-01  -5.2729510246442601e-01  -5.1634904742627996e-01  -5.0565891550058240e-01  -4.9518547720108097e-01  -4.8501478864438047e-01  -4.7515289411088490e-01  -4.6560176769517553e-01  -4.5634310170254350e-01  -4.3895338913698057e-01  -4.3071725828077706e-01  -4.2284521209136555e-01  -4.1535397293310006e-01  -4.0816152110513965e-01  -4.0121041488205700e-01  -3.9455620214142717e-01  -3.8818851116210135e-01  -3.8205985112666196e-01  -3.7614823727063912e-01  -3.7045022209582568e-01  -3.6493632119221153e-01  -3.5958995670450483e-01  -3.5441113509880318e-01  -3.4936986210130472e-01  -3.4447243414424950e-01  -3.3969765158112397e-01  -3.3505675399703860e-01  -3.3052706082137578e-01  -3.2613564029483094e-01  -3.2186732902164816e-01  -3.1772336882853575e-01  -3.1373758739423580e-01  -3.0990097699537028e-01  -3.0626258960555774e-01  -3.0280280605145382e-01  -2.9958526436368438e-01  -2.9661926676382822e-01  -2.9393304342718363e-01  -2.9153953363568147e-01  -2.8952783269750548e-01  -2.8786598687434961e-01  -2.8663216900479133e-01  -2.8583876500145861e-01  -2.8550548033876011e-01  -2.8566489302749182e-01  -2.8633458202718048e-01  -2.8750958220619122e-01  -2.8921295571341404e-01  -2.9141598466485169e-01  -2.9414777136254111e-01  -2.9735441862355466e-01  -3.0107556437953192e-01  -3.0523272298138621e-01  -3.0984895049402622e-01  -3.1489903572868982e-01  -3.2039501688630978e-01  -3.2625820266171268e-01  -3.3256761492733183e-01  -3.3925932081644206e-01  -3.4633814521379575e-01  -3.5390076395234848e-01  -3.6184800047131011e-01  -3.7024418409281973e-01  -3.7915002033600931e-01  -3.8847460582125098e-01  -3.9839406531886157e-01  -4.0874582383146379e-01  -4.1961451174554809e-01  -4.3118839964988054e-01  -4.4312726765238852e-01  -4.5559656724834763e-01  -4.6864494005494034e-01  -4.8226866933451229e-01  -4.9630728501582888e-01  -5.1088677434856822e-01  -5.2587663099120219e-01  -5.4136067629345075e-01  -5.5705602748623240e-01  -5.7299842987791583e-01  -5.8930008487809449e-01  -6.0565593811648311e-01  -6.2226769283124639e-01  -6.3896749307131451e-01  -6.5537758487627584e-01  -6.7155670892722930e-01  -6.8757810235408701e-01  -7.0334653908437750e-01  -7.3309092674420229e-01  -7.4695957048772010e-01  -7.6005946039223127e-01  -7.7207552690199077e-01  -7.8298242065230950e-01  -7.9262703651674982e-01  -8.0102941805349737e-01  -8.0801880113438507e-01  -8.1332540817734955e-01  -8.1696416282468309e-01  -8.1869497517532697e-01  -8.1879978466995595e-01  -8.1671190767625290e-01  -8.1279013134290068e-01  -8.0654798206213385e-01  -7.9787085817569092e-01  -7.8706969505074387e-01  -7.7389908974486676e-01  -7.5844078055570485e-01  -7.4031180804240448e-01  -7.1989777825031032e-01  -6.9677694865263584e-01  -6.7115084391350743e-01  -6.4319135590487220e-01  -6.1263708866343647e-01  -5.7981094956170409e-01  -5.4401917625715701e-01  -5.0600378061757334e-01  -4.6575498779000213e-01  -4.2303282859082963e-01  -3.7818903860889824e-01  -3.3095720303577159e-01  -2.8178083589089920e-01  -2.3028231659623558e-01  -1.7719022832188278e-01  -1.2191264666342125e-01  -6.5151155864835220e-02  -6.4879825307957995e-03  5.3327183410691821e-02  1.1475012588424845e-01  1.7762480964240451e-01  2.4126267159222109e-01  3.0564292112641056e-01  3.7136534255624404e-01  4.3765340248534207e-01  5.0418288929865729e-01  5.7135332739833988e-01  6.3858093186224840e-01  7.0565876323919052e-01  7.7296173021106751e-01  8.3969243513923786e-01  9.0624829735626833e-01  9.7191037029589955e-01  1.0370196103650213e+00  1.1008235125118120e+00  1.1638634925973521e+00  1.2255763935086881e+00  1.2856866054923430e+00  1.3441335555678680e+00  1.4010423287031502e+00  1.4559924866471068e+00  1.5085533933812032e+00  1.5593391948951589e+00  1.6075176848221950e+00  1.6534147328062181e+00  1.6965224708860045e+00  1.7370761264517616e+00  1.7749942828997656e+00  1.8094690763663590e+00  1.8407978094555566e+00  1.8699288210479847e+00  1.8949117839334544e+00  1.9168818246840116e+00  1.9356644761631141e+00  1.9505085793577941e+00  1.9627726980986606e+00  1.9707971207482593e+00  1.9754530129547543e+00  1.9741779665075967e+00  1.9682273024209582e+00  1.9587478942908587e+00  1.9457740495578979e+00  1.9292468643041139e+00  1.9087299569564060e+00  1.8851226549786162e+00  1.8585424174550678e+00  1.8283923193656719e+00  1.7948168127540705e+00  1.7581887315350959e+00  1.7183646688956138e+00  1.6757984401912904e+00  1.6301095156253189e+00  1.5818491233168892e+00  1.5306782282941056e+00  1.4772215532562201e+00  1.4211275811221638e+00  1.3630735196677379e+00  1.3026865489408614e+00  1.2405630922056137e+00  1.1762829709821512e+00  1.1105651106846319e+00  1.0431322899776674e+00  9.7461996287527597e-01  9.0465039615115805e-01  8.3379955085090729e-01  7.6193205937921771e-01  6.8965929326233510e-01  6.1662218207994024e-01  5.4309500310721615e-01  4.6969392031509455e-01  3.9605532893269574e-01  3.2254441053605964e-01  2.4925490090440994e-01  1.7641416575381877e-01  1.0414123375856833e-01  3.2542207443212491e-02  -3.7846353386755141e-02  -1.0749744156253617e-01  -1.7570115122213936e-01  -2.4303566904833426e-01  -3.0877791949250710e-01  -3.7250860600823038e-01  -4.3506216341970289e-01  -4.9556334308882971e-01  -5.5436715984217610e-01  -6.1133620819084700e-01  -6.6576050533021591e-01  -7.1811089531936123e-01  -7.6825876998471676e-01  -8.1636403157328985e-01  -8.6175527202316649e-01  -9.0503242749691959e-01  -9.4544163987701935e-01  -9.8357915434373178e-01  -1.0189641065169515e+00  -1.0520219437947065e+00  -1.0823259390196516e+00  -1.1102684877876170e+00  -1.1353576005818302e+00  -1.1579281593593320e+00  -1.1779556872664250e+00  -1.1956457929291480e+00  -1.2108031547863003e+00  -1.2235028396828613e+00  -1.2339459679868172e+00  -1.2423805575836895e+00  -1.2485096501357111e+00  -1.2520589552096437e+00  -1.2541481978259212e+00  -1.2541466524826035e+00  -1.2523534669562386e+00  -1.2487845349961320e+00  -1.2436489375930841e+00  -1.2370087993669470e+00  -1.2290217731774715e+00  -1.2198346186415963e+00  -5.1929066016525201e-02  1.0513496191323170e-01  -7.3760520096078863e-01  -3.7560042041829916e-02  -1.8302084722165229e-01  4.4668723996101140e-02  4.5934331814065577e-01  9.2432402371168354e-01  9.5437955717018141e-01  5.4588816220386738e-01  2.7630301401535295e-01  -7.7847904850960947e-01  -7.7921874546404857e-01  -4.4992542308313804e-01  -3.8736821450650732e-01  -1.7549638557070141e-01  -5.2056190819057629e-02  -3.0729490780489438e-01  2.6749499856996656e-01  8.6492938259659413e-01  1.3634654714706715e+00  1.2988851653955564e+00  6.9229476060605577e-01  2.2635271996895498e-01  -6.1537846514620687e-01  -7.8063358183557374e-01  -2.7355833344801428e-01  -9.9262747397977760e-02  -2.6083594394248399e-01  2.0006768501565714e-01  -2.3905608761198641e-01  -2.7630334959889769e-01  -7.6670844210676425e-01  -7.6862656512809369e-01  -7.6571827857926278e-01  -4.0594755285936274e-01  1.0511347136117053e+00  4.4468012642879767e-01  -4.0767342767870425e-02  7.8435178796556326e-01  1.4006884276451983e+00  1.7049745817478976e+00  1.6334088504720230e+00  -3.3800047854031640e-01  4.9490116819196281e-02  -1.4619649651038048e-02  -3.5386936087863896e-01  -8.0410990937221205e-01  9.0713864829233236e-03  -5.7000048566372599e-02  -5.2623596776010328e-01  -6.6545129516352008e-01  -3.4450017612894464e-02  1.3415772757807303e+00  -1.1337245387733812e-01  -7.3059924455253111e-01  -7.5984780148838305e-01  -7.9161593513257023e-01  -2.8302339671121401e-01  -2.8601079597723711e-01  -3.4105670279736655e-01  -1.0741345025368153e-01  -7.6260953360422723e-01  -3.6492111502716640e-01  9.0681109185932451e-01  3.8463638855331972e-01  -2.1236966148010638e-02  -8.5942929628631637e-01  -9.5058818415062274e-01  -1.0241771734853009e+00  -2.9986768886313301e-02  -4.3425430742173260e-01  -3.2814822659982917e-01  -2.7961867056184803e-01  1.8370281828552029e+00  1.8418508791258508e+00  1.5952789524913662e+00  1.1624464359348818e+00  -4.8703700753259060e-01  3.8335450848051639e-01  -7.5372334248390196e-02  -4.4290260074871918e-01  -5.7189384621340811e-01  -3.9758007482489932e-01  -4.8323587694015946e-01  1.0004463495471333e-01  1.7331370342418908e+00  5.6030236597205595e-02  -6.3403759868469278e-01  -1.1033593955138701e+00  -5.6859086222613031e-01  2.3339765786247404e-01  -2.7773174855860328e-01  -1.6011381443994332e-01  -4.1864342419334333e-01  1.8137078607771537e-01  -3.1868964305624814e-01  -6.8098809067511967e-01  -2.8796605986961532e-01  -3.8665394792377339e-01  -4.9237696980865148e-01  1.5194383498410740e+00  4.0942317474117479e-01  1.2131262870865043e+00  1.5483790014401655e-01  -1.8709986792092231e-01  -3.7864578083269895e-01  -2.9858397855165553e-01  -3.4979346122521998e-01  -3.0625597873642657e-01  7.1922992074671166e-01  -7.8328082495439189e-01  -8.7769222103785946e-02  9.9419674298891175e-02  -1.1293133079078523e+00  -8.4934841468070232e-01  -7.1060694882483011e-01  -7.4300630948479174e-01  -1.9731388727727565e-02  4.6779114809302927e-02  -8.3766800098189031e-01  2.8099501649474279e-01  6.3453675751516864e-02  4.0936278395146998e-03  -2.0669914220692670e-02  -2.3746031926508065e-02  6.4714312878135705e-01  6.7348320578267368e-02  3.3888900454815962e-01  1.3762022501053064e+00  9.7696779634841770e-03  -6.3956883151792587e-01  -6.1951158186600119e-01  1.1404029695029083e+00  -9.2947507221803338e-01  8.6943001808363812e-02  3.1118564089941264e-01  5.4951133394235230e-01  -7.1293914772655476e-01  9.0591540888046496e-01  9.7399440911316348e-01  -2.8432542177477749e-01  -7.6758518530608078e-01  7.0202194897659265e-01  -1.0824044426979271e+00  -1.0570903221189953e+00  -2.5283567945945773e-01  -4.8748560307702371e-01  -1.8186597388021822e-01  -2.9850372413233706e-01  -5.0028691641704737e-01  1.0899525879395038e+00  -3.3399193882134814e-01  -3.6868431464433088e-01  3.0629039931083413e-01  -2.4485540644038576e-02  1.7680036054936117e+00  4.1461733422080238e-01  1.9235834444503042e+00  1.8897100685696293e+00  1.5037888315163705e+00  -1.9692955678242913e-01  2.5427662222609126e-01  1.6643537989657682e-02  5.4921586697165181e-02  -7.5766792576617906e-02  -6.7058820793361396e-01  2.3953079553848117e-01  -6.5765990188147827e-01  -2.0704696981602427e-01  2.2726530814881199e-01  -5.8737212315619547e-01  -4.3349182453594892e-01  1.0194614655912108e-01  -1.1447241070821050e+00  -2.8923931293940941e-01  -8.0930642250055229e-01  -4.4988573908511742e-01  -5.3009061953094860e-01  6.0411248792266248e-01  1.9077012572196561e-01  -1.9861489537666210e-01  -2.0022854440590807e-01  -5.7095341487436579e-01  4.2450411198768861e-01  -8.8354583842137102e-01  2.7178701878041878e-01  -2.2864160603006040e-01  6.8402474323822093e-01  -9.8896851303743838e-01  3.6754578370184178e-02  -7.4076208932730436e-01  -1.8334579897418560e-01  2.5959510374642153e-01  4.3894035360613748e-01  4.0544683567230488e-01  -2.8718184812275688e-01  1.8942261186010183e+00  -6.2839775955297028e-01  1.8211110510164745e+00  1.6909944294502330e+00  1.5815977777912376e+00  4.9768956229474881e-01  -4.1698601100504268e-01  5.2531220897686602e-02  -5.7161454304555581e-01  8.8924235308568955e-01  -1.8672263455203886e-01  -4.6480376576731458e-01  -8.3176801063504124e-01  -1.1884428091173885e-01  -1.9211910107420049e-01  -7.5371521114068296e-01  1.1540669303893654e+00  -7.7170262520455135e-01  -4.1075533638848433e-01  -7.1970977068269570e-01  1.0597926697525974e-01  3.7679434773847403e-01  -7.8205856943923208e-02  3.6734164801575292e-01  5.5849669021732384e-01  -3.1430594326876665e-01  -3.3165163479391424e-01  7.2452497175349373e-01  -4.6956957465574239e-01  -6.3637609104138304e-01  -5.1805711710682756e-01  -5.1272388690670079e-02  5.2443147640322696e-01  -6.5638718657578554e-01  -2.9742290496450580e-02  -1.1961550160953316e+00  1.3584711947116093e+00  -1.7960184517692993e-01  1.3587764486202374e+00  4.2012105412872203e-01  -9.0058791055057297e-01  -3.6832529339733527e-01  -7.2761564871543882e-01  -2.9968033393881327e-01  -1.1194767551784679e+00  1.7209776251142525e-01  3.2534521061988356e-02  5.8221515634807985e-02  -7.4346293129132962e-02  -4.0161024313700056e-01  2.3006795426053547e-01  5.1540418673300803e-01  -3.4384260011353218e-01  -7.5722750564633667e-01  1.9829324742154389e-02  3.5242101288163669e-01  1.4562147193316327e-01  1.9239532600418385e-01  -7.5832360521378162e-01  -7.8284152768013249e-01  -7.3645340215313904e-01  -2.9574375165496680e-01  -6.9154382353165567e-01  1.6745154232342934e+00  -7.8828806721897915e-01  -1.4416827186725822e-01  -2.4424349570315318e-01  1.7096560626479115e-01  -3.6392993480972309e-02  7.0058386758533486e-01  1.0993321642078229e+00  -4.8324733903630727e-02  3.0860576104619031e-01  2.4811986531943514e-01  1.6302274051645602e-01  -1.0749729876633005e+00  -1.1807730720215830e+00  -6.9809605039887745e-01  1.1863810475432983e-01  2.2100922042599663e-01  -2.1719795549865942e-01  8.8527234635834040e-01  1.2617606047073060e+00  -7.2805551482513373e-0