<?xml version="1.0"?>
<VTKFile type="UnstructuredGrid"  version="0.1"  >
<UnstructuredGrid>
<Piece  NumberOfPoints="5712" NumberOfCells="10893">
<Points>
<DataArray  type="Float64"  NumberOfComponents="3"  format="ascii">0 0 0  0 0.41 0  2.2 0 0  2.2 0.41 0  0.2 0.25 0  0.25 0.2 0  0.2 0.15 0  0.15 0.2 0  0 0.3904761904762147 0  0 0.3709523809524729 0  0 0.3514285714286954 0  0 0.3319047619049458 0  0 0.3123809523811823 0  0 0.2928571428574404 0  0 0.2733333333336768 0  0 0.2538095238099349 0  0 0.2342857142861567 0  0 0.2147619047624078 0  0 0.1952380952385999 0  0 0.1757142857147328 0  0 0.1561904761908952 0  0 0.1366666666670465 0  0 0.1171428571431906 0  0 0.09761904761931661 0  0 0.0780952380954425 0  0 0.05857142857161174 0  0 0.03904761904773757 0  0 0.01952380952386334 0  0.01986745845578998 0 0  0.03982462845278956 0 0  0.05987191195217309 0 0  0.0800097046343772 0 0  0.1002384394563812 0 0  0.1205585077310739 0 0  0.1409703274044529 0 0  0.1614743126654433 0 0  0.1820708739963059 0 0  0.2027604497544275 0 0  0.2235434355718665 0 0  0.2444202633435119 0 0  0.265391361068545 0 0  0.2864571529028895 0 0  0.3076180592107884 0 0  0.3288745151942862 0 0  0.3502269459367295 0 0  0.3716757933139423 0 0  0.3932214934733583 0 0  0.4148644812710909 0 0  0.4366051859408088 0 0  0.4584440653716539 0 0  0.48038154995608 0 0  0.5024180900849111 0 0  0.5245541321026944 0 0  0.5467901197490906 0 0  0.5691265226973262 0 0  0.5915637755827025 0 0  0.614102339850345 0 0  0.636742674167927 0 0  0.6594852330945143 0 0  0.6823304884387933 0 0  0.7052788907288091 0 0  0.7283309147437839 0 0  0.751487030986726 0 0  0.7747477057419434 0 0  0.7981134011315298 0 0  0.821584610595033 0 0  0.8451617959659341 0 0  0.8688454391891771 0 0  0.8926360178861791 0 0  0.9165340281873645 0 0  0.9405399372917173 0 0  0.9646542424736072 0 0  0.9888774365267383 0 0  1.013210007824441 0 0  1.037652440378865 0 0  1.06220524733373 0 0  1.086868914509785 0 0  1.111643945154348 0 0  1.136530838720734 0 0  1.161530116277625 0 0  1.186642266933783 0 0  1.211867807739771 0 0  1.237207251805963 0 0  1.26266110764717 0 0  1.288229902058941 0 0  1.313914143782356 0 0  1.339714360040014 0 0  1.36563107331828 0 0  1.391664802767304 0 0  1.417816093074858 0 0  1.444085461454821 0 0  1.470473442759746 0 0  1.496980573539167 0 0  1.523607398041112 0 0  1.550354449227912 0 0  1.577222271446548 0 0  1.60421140927435 0 0  1.631322413213628 0 0  1.658555830029694 0 0  1.685912218634225 0 0  1.713392126884173 0 0  1.740996123438425 0 0  1.768724751279777 0 0  1.796578588883932 0 0  1.824558192783585 0 0  1.852664140769835 0 0  1.880896988683294 0 0  1.909257322654582 0 0  1.93774570990443 0 0  1.966362727809846 0 0  1.995108970713317 0 0  2.023985006033532 0 0  2.052991427225145 0 0  2.082128822851723 0 0  2.111397799134646 0 0  2.140798904430552 0 0  2.170332790993664 0 0  2.2 0.02928571428565775 0  2.2 0.05857142857131794 0  2.2 0.08785714285694929 0  2.2 0.1171428571425731 0  2.2 0.1464285714282011 0  2.2 0.1757142857138497 0  2.2 0.2049999999994743 0  2.2 0.2342857142852724 0  2.2 0.2635714285710462 0  2.2 0.2928571428568132 0  2.2 0.3221428571426234 0  2.2 0.3514285714283903 0  2.2 0.3807142857142005 0  2.170332790993718 0.41 0  2.140798904430656 0.41 0  2.111397799134855 0.41 0  2.082128822859404 0.41 0  2.052991427232898 0.41 0  2.023985006041361 0.41 0  1.99510897072121 0.41 0  1.966362727817755 0.41 0  1.937745709912357 0.41 0  1.90925732266254 0.41 0  1.880896988691295 0.41 0  1.852664140777879 0.41 0  1.824558192791673 0.41 0  1.79657858889206 0.41 0  1.768724751287952 0.41 0  1.740996123446639 0.41 0  1.713392126892427 0.41 0  1.685912218642533 0.41 0  1.658555830038071 0.41 0  1.631322413222075 0.41 0  1.604211409282859 0.41 0  1.577222271455122 0.41 0  1.55035444923655 0.41 0  1.523607398049813 0.41 0  1.496980573547932 0.41 0  1.470473442768574 0.41 0  1.444085461463712 0.41 0  1.417816093083807 0.41 0  1.391664802776313 0.41 0  1.365631073327341 0.41 0  1.339714360049107 0.41 0  1.31391414379148 0.41 0  1.288229902068097 0.41 0  1.262661107656355 0.41 0  1.237207251815179 0.41 0  1.211867807749015 0.41 0  1.186642266943055 0.41 0  1.161530116286924 0.41 0  1.13653083873006 0.41 0  1.111643945163706 0.41 0  1.086868914519036 0.41 0  1.062205247342763 0.41 0  1.037652440387677 0.41 0  1.013210007833036 0.41 0  0.9888774365351134 0.41 0  0.9646542424817568 0.41 0  0.9405399372996428 0.41 0  0.916534028195068 0.41 0  0.8926360178936621 0.41 0  0.8688454391964415 0.41 0  0.8451617959729809 0.41 0  0.8215846106018625 0.41 0  0.7981134011381465 0.41 0  0.7747477057483507 0.41 0  0.7514870309929218 0.41 0  0.7283309147497725 0.41 0  0.7052788907345926 0.41 0  0.6823304884443711 0.41 0  0.6594852330998913 0.41 0  0.6367426741731019 0.41 0  0.6141023398553211 0.41 0  0.5915637755874821 0.41 0  0.5691265227019089 0.41 0  0.5467901197534788 0.41 0  0.5245541321068876 0.41 0  0.5024180900889137 0.41 0  0.4803815499598949 0.41 0  0.458444065375283 0.41 0  0.4366051859442526 0.41 0  0.4148644812743503 0.41 0  0.3932214934764355 0.41 0  0.3716757933168389 0.41 0  0.3502269459394474 0.41 0  0.3288745151968251 0.41 0  0.3076180592131517 0.41 0  0.2864571529050777 0.41 0  0.2653913610705745 0.41 0  0.2444202633453989 0.41 0  0.2235434355736121 0.41 0  0.202760449756034 0.41 0  0.1820708739977555 0.41 0  0.1614743126667344 0.41 0  0.140970327405586 0.41 0  0.120558507732039 0.41 0  0.1002384394571796 0.41 0  0.08000970463500767 0.41 0  0.05987191195264252 0.41 0  0.03982462845310097 0.41 0  0.01986745845594617 0.41 0  0.2009941093832422 0.2499901164885035 0  0.2019878257548352 0.2499604698613656 0  0.2029807562584742 0.2499110718390977 0  0.2039725083485626 0.2498419419507366 0  0.2049626899453778 0.2497531075261239 0  0.2059509095900689 0.2496446036851018 0  0.2069367765994233 0.2495164733236293 0  0.2079199012203332 0.2493687670968211 0  0.208899894783849 0.2492015433989262 0  0.209876369858873 0.2490148683402368 0  0.2108489404052936 0.2488088157209575 0  0.2118172219266183 0.248583467002027 0  0.2127808316219855 0.248338911272912 0  0.2137393885375067 0.2480752452163837 0  0.2146925137168532 0.2477925730703012 0  0.2156398303510693 0.247491006586403 0  0.2165809639275547 0.2471706649861239 0  0.2175155423781385 0.2468316749134561 0  0.2184431962261471 0.2464741703848905 0  0.2193635587324768 0.2460982927364335 0  0.2202762660405913 0.2457041905677276 0  0.2211809573203641 0.2452920196833053 0  0.2220772749107273 0.2448619430309942 0  0.2229648644610677 0.2444141306374986 0  0.2238433750713457 0.2439487595411649 0  0.2247124594307593 0.2434660137220228 0  0.2255717739550953 0.2429660840290282 0  0.2264209789225549 0.2424491681046155 0  0.227259738608055 0.2419154703065648 0  0.2280877214159585 0.2413652016272072 0  0.2289046000111568 0.2407985796100187 0  0.2297100514485014 0.2402158282636004 0  0.2305037573004443 0.2396171779731418 0  0.2312854037829426 0.2390028654093291 0  0.2320546818795267 0.2383731334347658 0  0.2328112874634348 0.2377282310079845 0  0.2335549214178666 0.2370684130850081 0  0.2342852897542382 0.2363939405185524 0  0.23500210372839 0.2357050799549172 0  0.2357050799547543 0.2350021037285561 0  0.236393940518396 0.2342852897544042 0  0.2370684130848552 0.2335549214180355 0  0.2377282310078377 0.2328112874636036 0  0.2383731334346237 0.2320546818796969 0  0.2390028654091947 0.2312854037831102 0  0.2396171779730177 0.2305037573006055 0  0.2402158282634863 0.2297100514486559 0  0.2407985796099098 0.2289046000113105 0  0.2413652016271038 0.2280877214161108 0  0.2419154703064672 0.2272597386082051 0  0.2424491681045289 0.2264209789226942 0  0.2429660840289533 0.2255717739552211 0  0.2434660137219522 0.2247124594308835 0  0.2439487595410967 0.2238433750714713 0  0.2444141306374335 0.2229648644611936 0  0.2448619430309386 0.2220772749108404 0  0.2452920196832561 0.2211809573204692 0  0.2457041905676833 0.2202762660406911 0  0.2460982927363924 0.2193635587325747 0  0.246474170384854 0.2184431962262392 0  0.2468316749134214 0.2175155423782314 0  0.2471706649860917 0.216580963927646 0  0.2474910065863757 0.215639830351152 0  0.2477925730702761 0.2146925137169349 0  0.2480752452163603 0.2137393885375889 0  0.2483389112728914 0.2127808316220633 0  0.248583467002012 0.2118172219266803 0  0.2488088157209458 0.2108489404053462 0  0.2490148683402261 0.2098763698589259 0  0.249201543398917 0.2088998947838999 0  0.2493687670968142 0.2079199012203759 0  0.2495164733236233 0.2069367765994661 0  0.2496446036850975 0.205950909590105 0  0.2497531075261207 0.2049626899454101 0  0.2498419419507343 0.2039725083485922 0  0.2499110718390968 0.2029807562584889 0  0.2499604698613655 0.2019878257548365 0  0.2499901164885035 0.2009941093832422 0  0.2499901164885035 0.1990058906167579 0  0.2499604698613656 0.1980121742451648 0  0.2499110718390977 0.1970192437415259 0  0.2498419419507366 0.1960274916514374 0  0.2497531075261239 0.1950373100546222 0  0.2496446036851018 0.1940490904099311 0  0.2495164733236293 0.1930632234005767 0  0.2493687670968211 0.1920800987796668 0  0.2492015433989262 0.191100105216151 0  0.2490148683402368 0.190123630141127 0  0.2488088157209575 0.1891510595947065 0  0.248583467002027 0.1881827780733817 0  0.248338911272912 0.1872191683780146 0  0.2480752452163837 0.1862606114624933 0  0.2477925730703012 0.1853074862831468 0  0.247491006586403 0.1843601696489307 0  0.2471706649861239 0.1834190360724454 0  0.2468316749134561 0.1824844576218615 0  0.2464741703848905 0.181556803773853 0  0.2460982927364335 0.1806364412675232 0  0.2457041905677276 0.1797237339594087 0  0.2452920196833053 0.1788190426796359 0  0.2448619430309942 0.1779227250892727 0  0.2444141306374986 0.1770351355389324 0  0.2439487595411649 0.1761566249286543 0  0.2434660137220228 0.1752875405692407 0  0.2429660840290282 0.1744282260449047 0  0.2424491681046155 0.1735790210774451 0  0.2419154703065648 0.172740261391945 0  0.2413652016272072 0.1719122785840415 0  0.2407985796100187 0.171095
[...]
<PointData  Scalars="f_19"> 
<DataArray  type="Float64"  Name="f_19"  format="ascii">6.0780735111729267e-01  4.6751885558041573e-01  0.0000000000000000e+00  0.0000000000000000e+00  -1.1166182430832383e+00  -4.8880830814859849e-01  -7.2479293287899049e-01  2.0170192042061097e+00  4.6749830123524477e-01  4.7202867543400251e-01  4.8638852445352526e-01  5.1390784574641368e-01  5.5681599739229148e-01  6.1304221461910313e-01  6.7890857912422420e-01  7.4708119158264108e-01  8.0821917290268408e-01  8.5178919157499333e-01  8.7028876877488270e-01  8.6287424023375703e-01  8.3240796910197012e-01  7.8678734745064238e-01  7.3663522702662865e-01  6.8998035461067342e-01  6.5263115919227699e-01  6.2715579344703465e-01  6.1289408758955755e-01  6.0798291411123939e-01  6.0657717501506159e-01  6.0322494048236275e-01  5.9672378110489344e-01  5.8624660728131173e-01  5.7068701780274378e-01  5.4892260697558060e-01  5.2014345669641293e-01  4.8443980888990812e-01  4.4324332225564883e-01  3.9955896337219654e-01  3.5747068649005326e-01  3.2151185349797262e-01  2.9438863640774771e-01  2.7687997147727861e-01  2.6855837718130510e-01  2.6856470577761499e-01  2.7223415465717649e-01  2.7463902923001599e-01  2.7395676155056281e-01  2.6715211831308500e-01  2.5132311602555962e-01  2.2524412715718586e-01  1.8605097854130084e-01  1.4371882165829289e-01  1.0789208636573180e-01  8.6635932832844278e-02  8.3709470892974855e-02  9.9321534888025240e-02  1.2605500615121748e-01  1.6145998271131340e-01  2.0335092525674314e-01  2.4612181805160641e-01  2.8807023936759818e-01  3.2308906892906725e-01  3.4763410562973196e-01  3.5835362867822351e-01  3.5497821849897332e-01  3.4211361234404863e-01  3.2226602289484252e-01  2.9612572439482715e-01  2.6413994583774209e-01  2.2410996986587869e-01  1.7911389179465220e-01  1.2785373271992298e-01  8.2962689935063741e-02  5.1660180429278883e-02  5.5548538251986745e-02  9.7437797574651833e-02  1.5617886679733883e-01  2.2679375332606755e-01  2.8561436817421010e-01  3.1870977047424986e-01  3.3030315393871418e-01  3.2128681891960076e-01  2.9206020375980596e-01  2.4385061747269426e-01  1.8337368232559451e-01  1.1699181948483052e-01  5.1949564281539934e-02  3.3956497289823421e-03  -1.6978273021962649e-02  -5.6717851731874483e-03  3.1568243711940877e-02  8.8280351863727471e-02  1.4266488419634199e-01  1.8591590952715922e-01  2.1750738597745314e-01  2.2637392975131240e-01  2.1794209588700486e-01  1.9150422600005423e-01  1.5083086458864547e-01  9.7897898500698355e-02  4.3451318058346150e-02  -1.3257543835651184e-03  -3.2782745651439869e-02  -3.4124031533497363e-02  -1.1605601893364082e-02  2.6908161740389791e-02  7.4693715373341574e-02  1.1810085800618686e-01  1.5204216324305730e-01  1.6867826573499986e-01  1.7059451789917374e-01  1.5652719516482544e-01  1.2719038875278624e-01  9.1996524531155963e-02  5.4491425441247167e-02  2.2055773692990062e-02  4.1711957799704319e-03  0.0000000000000000e+00  0.0000000000000000e+00  0.0000000000000000e+00  0.0000000000000000e+00  0.0000000000000000e+00  0.0000000000000000e+00  0.0000000000000000e+00  0.0000000000000000e+00  0.0000000000000000e+00  0.0000000000000000e+00  0.0000000000000000e+00  0.0000000000000000e+00  0.0000000000000000e+00  2.1689745585553137e-02  2.7482911172720913e-02  1.9973901420133697e-02  -3.2362892079676304e-03  -3.2366440640674177e-02  -5.8268794320497488e-02  -7.1758886520078405e-02  -6.4567011201670174e-02  -3.5936463332874674e-02  5.0646232668871347e-03  5.8027655283409967e-02  1.0494157056342060e-01  1.4365768577796550e-01  1.6946279845828488e-01  1.7685210283324543e-01  1.6519810714751657e-01  1.3723380776126551e-01  9.7790382503405562e-02  5.0481175762341714e-02  8.3591904984045180e-03  -1.8353207632197093e-02  -2.3254072618258976e-02  -6.8569352435895840e-04  4.7160340077943369e-02  1.0470670229350552e-01  1.6654571423972192e-01  2.2241942574550419e-01  2.5809165282660779e-01  2.7679258746271868e-01  2.7412609582602887e-01  2.5059266014148240e-01  2.0576251112035537e-01  1.4559325528625572e-01  7.6589525379434961e-02  1.8360907827061887e-02  -9.2080060343161779e-03  1.1575871115626911e-02  6.1332361606313328e-02  1.2583215014884530e-01  1.8846015276793113e-01  2.4039713840726579e-01  2.8135548209709876e-01  3.1755486022745200e-01  3.4138344560798850e-01  3.5210534464069543e-01  3.4579228659381073e-01  3.1795967680712506e-01  2.7154139410893724e-01  2.1023349193468244e-01  1.5706650450387108e-01  1.1918366296949214e-01  1.0549961239890007e-01  1.2033969984391941e-01  1.4343284668014050e-01  1.7359371832915049e-01  2.0483876694469264e-01  2.3994058280291169e-01  2.8358966640140920e-01  3.3278267130671574e-01  3.8104882627752557e-01  4.1623365746737145e-01  4.3774847692920477e-01  4.3778174796811620e-01  4.1602301844198980e-01  3.7472305036857734e-01  3.2462183362181996e-01  2.6286496288437922e-01  2.0397310120939419e-01  1.5056206238951789e-01  1.1202248166905138e-01  8.4083163506781411e-02  6.9044354103623945e-02  6.3519421313397009e-02  6.6635624949546335e-02  7.9495804272457796e-02  9.9013559022119044e-02  1.2903943706748733e-01  1.6684428454734657e-01  2.1011981278588202e-01  2.5919410302576329e-01  3.0706490233021622e-01  3.5118337031441293e-01  3.8853131971939286e-01  4.1806770876616578e-01  4.3765879315630213e-01  4.5193701015173920e-01  4.5950962761967923e-01  4.6492887625924767e-01  4.6634132502226050e-01  -1.1009887345501321e+00  -1.0846471758858334e+00  -1.0677326390205759e+00  -1.0503071750375601e+00  -1.0324148342307042e+00  -1.0140793158229933e+00  -9.9563319779456805e-01  -9.7704660615567829e-01  -9.5854829250765750e-01  -9.4013857411887347e-01  -9.2190635841263058e-01  -9.0374701282308290e-01  -8.8619979124004611e-01  -8.6873673153290143e-01  -8.5160885621614779e-01  -8.3504016974937334e-01  -8.1890078220468443e-01  -8.0335458215913003e-01  -7.8824296817873007e-01  -7.7373396902388747e-01  -7.5980489812018304e-01  -7.4651303328470286e-01  -7.3364381485340402e-01  -7.2127584777832876e-01  -7.0954534973499483e-01  -6.9831819812757245e-01  -6.8769514999786752e-01  -6.7757622200960999e-01  -6.6804171588026573e-01  -6.5898978039373424e-01  -6.5057627000189133e-01  -6.4268867030158194e-01  -6.3531229490803254e-01  -6.2854916511800862e-01  -6.2239295110343451e-01  -6.1680034565705544e-01  -6.1182225161580739e-01  -6.0744455726085500e-01  -6.0362714438249576e-01  -6.0039664483510569e-01  -5.9770636176173586e-01  -5.9554443524400535e-01  -5.9387183827960144e-01  -5.9263874490854429e-01  -5.9180344768880677e-01  -5.9134135499803808e-01  -5.9114218733157109e-01  -5.9116918120614204e-01  -5.9147031596573374e-01  -5.9184884583950059e-01  -5.9234889960283255e-01  -5.9284496185812918e-01  -5.9334375686964524e-01  -5.9378835690444431e-01  -5.9410329043527388e-01  -5.9428062972132711e-01  -5.9426299205145816e-01  -5.9390676555810484e-01  -5.9328004142968471e-01  -5.9234009355128958e-01  -5.9104367967294213e-01  -5.8931966086886345e-01  -5.8719434862032838e-01  -5.8458456282901972e-01  -5.8151701804795120e-01  -5.7791125182847791e-01  -5.7383959040715327e-01  -5.6918824192180439e-01  -5.6405700400411340e-01  -5.5843231365767665e-01  -5.5224871072986204e-01  -5.4559214648437149e-01  -5.3853868612408018e-01  -5.3101241986746817e-01  -5.2315760066040295e-01  -5.1494085236488829e-01  -5.0645349452619148e-01  -4.9769958772351075e-01  -4.7977422237707817e-01  -4.7061490047416582e-01  -4.6152626880351211e-01  -4.5247010429945334e-01  -4.4350821007064029e-01  -4.3460660879615831e-01  -4.2597640660462260e-01  -4.1756448407539570e-01  -4.0946424278598909e-01  -4.0163866475247656e-01  -3.9422000354877795e-01  -3.8715098068830595e-01  -3.8044735182399642e-01  -3.7426291500438613e-01  -3.6847290846849901e-01  -3.6316431616196837e-01  -3.5829204867451780e-01  -3.5394064004345277e-01  -3.5005832093107747e-01  -3.4661459544754802e-01  -3.4375698272773619e-01  -3.4145484944081583e-01  -3.3947081957454639e-01  -3.3813899265094305e-01  -3.3716523260119347e-01  -3.3676422279408608e-01  -3.3679303413492906e-01  -3.3729419407230499e-01  -3.3819543447523337e-01  -3.3944629641108082e-01  -3.4121083660285301e-01  -3.4321741171842979e-01  -3.4564705056867823e-01  -3.4834622441901170e-01  -3.5133915564343615e-01  -3.5456931621687593e-01  -3.5805102456629589e-01  -3.6170849339581546e-01  -3.6557101223647087e-01  -3.6956014205527010e-01  -3.7372402376867025e-01  -3.7799130390454827e-01  -3.8242483346799544e-01  -3.8697774951018543e-01  -3.9166520780670544e-01  -3.9649003802007399e-01  -4.0152477491418304e-01  -4.0672522391912574e-01  -4.1216835224390008e-01  -4.1784468121153256e-01  -4.2375817423319928e-01  -4.3004735880506978e-01  -4.3662784027994106e-01  -4.4356115161331650e-01  -4.5093111760647958e-01  -4.5864205926704743e-01  -4.6687261002214431e-01  -4.7546712138131114e-01  -4.8449143809084116e-01  -4.9414085151975962e-01  -5.0406901963757778e-01  -5.1442967065089662e-01  -5.2527617865992926e-01  -5.3659341597865573e-01  -5.4822554197949769e-01  -5.6027983790271052e-01  -5.7264106104007184e-01  -5.8537390550630908e-01  -5.9821548601072994e-01  -6.1118101935476343e-01  -6.2438660094386411e-01  -6.3753488911079970e-01  -6.5081861704012656e-01  -6.6407827641489803e-01  -6.7694219635248010e-01  -6.8945732258872838e-01  -7.0171209076854335e-01  -7.1360496202199675e-01  -7.3532212988996382e-01  -7.4504964999644152e-01  -7.5391483337924303e-01  -7.6164058751475883e-01  -7.6817421205186176e-01  -7.7340666416252535e-01  -7.7732928109539245e-01  -7.7982143317385288e-01  -7.8059076227225954e-01  -7.7968744393995570e-01  -7.7685724576925708e-01  -7.7240622890302790e-01  -7.6577192989955611e-01  -7.5732411306790814e-01  -7.4660893345155177e-01  -7.3349025194433171e-01  -7.1831356758701970e-01  -7.0081839953665570e-01  -6.8112588563239829e-01  -6.5884504158813773e-01  -6.3436331467359108e-01  -6.0731230466148578e-01  -5.7784897251253531e-01  -5.4618073015722446e-01  -5.1203414259975299e-01  -4.7575383947996308e-01  -4.3670056314749311e-01  -3.9554163282927335e-01  -3.5231654290485931e-01  -3.0677425428956884e-01  -2.5929250925252045e-01  -2.0959294655777905e-01  -1.5814085648128065e-01  -1.0454409773840097e-01  -4.9545544271221931e-02  7.4465011400783807e-03  6.5723506168950091e-02  1.2571245409817064e-01  1.8667189598694181e-01  2.4898132538820170e-01  3.1255574410069265e-01  3.7674848476003198e-01  4.4146647278422058e-01  5.0726811958699713e-01  5.7347329653338253e-01  6.3974156707344043e-01  7.0642102448853494e-01  7.7298555400557478e-01  8.3920208561014920e-01  9.0543265702591968e-01  9.7091237154233401e-01  1.0360314538665489e+00  1.1000912799702893e+00  1.1634172020554669e+00  1.2252643377840384e+00  1.2861575120467750e+00  1.3455979460100067e+00  1.4032573266255199e+00  1.4590668954330046e+00  1.5132139018524884e+00  1.5652825748659598e+00  1.6148011371495989e+00  1.6624107333094824e+00  1.7073024143593998e+00  1.7497833548867621e+00  1.7893843825151632e+00  1.8263057654461468e+00  1.8605269650240714e+00  1.8911989375931464e+00  1.9186186243351033e+00  1.9437961261195031e+00  1.9647360159389780e+00  1.9826254491145276e+00  1.9972580568742169e+00  2.0079336822572524e+00  2.0159710802570450e+00  2.0197478547940064e+00  2.0201512725752466e+00  2.0103311363374883e+00  2.0001014298939821e+00  1.9863767028368366e+00  1.9691586724727383e+00  1.9484429741836646e+00  1.9237705303976653e+00  1.8960422554715868e+00  1.8653862192588879e+00  1.8312487445559291e+00  1.7937398696206404e+00  1.7532726885655014e+00  1.7096701773522265e+00  1.6634444277155429e+00  1.6141793892248801e+00  1.5624695012408749e+00  1.5079500718210588e+00  1.4512807648598667e+00  1.3920843212486296e+00  1.3310737006756252e+00  1.2678575944967785e+00  1.2030745536734380e+00  1.1362805492468808e+00  1.0682138124770491e+00  9.9858036869630551e-01  9.2804764448286947e-01  8.5623177419083041e-01  7.8370591755372765e-01  7.1033042220212594e-01  6.3674577059044635e-01  5.6262470440297441e-01  4.8816718140613796e-01  4.1404852116421254e-01  3.3991520255065882e-01  2.6610189372622611e-01  1.9269242077958407e-01  1.1992893015481160e-01  4.7954647364573125e-02  -2.3151357715139893e-02  -9.2823612942562264e-02  -1.6153849647570442e-01  -2.2860700970043599e-01  -2.9460475253837493e-01  -3.5881596734150978e-01  -4.2076754547830592e-01  -4.8137128718966188e-01  -5.3972185834153785e-01  -5.9617623248735918e-01  -6.5063263945418182e-01  -7.0232656513147806e-01  -7.5174859467151145e-01  -7.9881001585126976e-01  -8.4366686767677890e-01  -8.8564404359907201e-01  -9.2533296486843919e-01  -9.6201473307710861e-01  -9.9627033019133437e-01  -1.0276488815186884e+00  -1.0565606287468607e+00  -1.0826183054640235e+00  -1.1061952525725622e+00  -1.1268348011896154e+00  -1.1448497012995229e+00  -1.1602568515045271e+00  -1.1732513072632753e+00  -1.1836740429888835e+00  -1.1915822494669133e+00  -1.1972111769440275e+00  -1.2008128942448437e+00  -1.2021114127153765e+00  -1.2008121279632487e+00  -1.1980764537280755e+00  -1.1932908705795020e+00  -1.1867341169238617e+00  -1.1784655467797422e+00  -1.1686704196476287e+00  -1.1574550329332518e+00  -1.1449517066379968e+00  -1.1313541628213573e+00  -2.4417643663478447e-01  -3.0020567416891469e-01  -3.1471839611785918e-01  1.1834174789265020e-01  -1.2845643744377597e-01  1.3340947401251116e-01  5.1191485739128295e-01  9.6472829585625386e-01  1.0027559633668164e+00  5.7379873852953189e-01  2.7480628961938164e-01  -1.0078415442333704e+00  -5.9855625516074840e-01  -3.3528219082361849e-01  -4.6627086960490705e-01  -2.0868138082780058e-01  -6.9009554521329564e-02  -2.2294170121106041e-01  3.1689313976300837e-01  8.9367618540135563e-01  1.4011120683711671e+00  1.3551340645383145e+00  7.4376887739245379e-01  2.4880852770742351e-01  -6.5121437281269490e-01  -5.8524094869252508e-01  -3.3869083882362994e-01  -1.0425567524550293e-01  -2.1444055497876238e-01  2.1513085020742348e-01  -3.4488788671285014e-01  -3.5087112872397108e-01  -5.5605276027972117e-01  -6.2320803154121629e-01  -6.6338273471735609e-01  -4.5807400009042665e-01  1.1271084164456842e+00  5.2117209011678478e-01  1.3913601158988178e-02  7.8324221486963264e-01  1.4137799482849140e+00  1.7423325303838055e+00  1.6976141378463323e+00  -3.1560243576897989e-01  -4.0919458999895614e-01  -3.2699983162260145e-02  -3.9068562416984165e-01  -7.3791783835037461e-01  -2.6785581985141586e-02  9.1383750754712029e-03  -5.4337169392218576e-01  -5.7893124262352402e-01  -2.4648706638607281e-02  1.4304136795351408e+00  -6.3193665912169026e-03  -5.6815446375321044e-01  -5.7206281604775722e-01  -6.1889598614778518e-01  -3.7464138053859281e-01  -3.4702539306285773e-01  -3.8140121884190620e-01  -2.5300943023053548e-02  -7.3295521448323542e-01  -3.6305482204152778e-01  1.0139221517406594e+00  4.9348775551941287e-01  7.1987473679990574e-02  -7.0427518202524064e-01  -8.1925701656275784e-01  -9.2307038183425849e-01  -5.1656582495123525e-02  -4.7188242198333685e-01  -4.0465609601441882e-01  -3.5455701958213115e-01  1.8875327785671610e+00  1.8685175871164013e+00  1.5972117016840681e+00  1.1494068849357155e+00  -4.9525373363199604e-01  3.5162504230867325e-01  1.6258798552386983e-01  -3.6400975741530484e-01  -5.2230082812002820e-01  -4.5858155509787835e-01  -5.2444427827050799e-01  3.8536042846223151e-01  1.8080512835230000e+00  7.4897924707381186e-02  -6.1570254701461147e-01  -1.0291113222278772e+00  -5.5920761080171866e-01  3.1053698543549851e-01  8.9276167944526752e-02  8.5233211615593427e-02  8.1295749477844209e-03  2.8097588822533487e-01  -3.5650960982541591e-01  -5.7897331873400104e-01  -3.6920745823578416e-01  -4.2122859308052069e-01  -5.1986262853066934e-01  1.6143723797065530e+00  2.8952139929352005e-01  1.3239950091360717e+00  2.7082833037075260e-01  -1.2480837328370525e-01  3.0263741606989816e-02  -3.4622954061169486e-01  -3.8053704410382055e-01  -3.8815540283377853e-01  6.8067234706968072e-01  -6.0742220782665812e-01  -2.4436236636217137e-01  2.3519208474488068e-01  -1.0806178833424234e+00  -8.4589267745644570e-01  -7.2862246512259643e-01  -5.7962924178185660e-01  -1.9377189807703465e-01  2.2336339538834576e-01  -6.7307651411641034e-01  3.5234813054064473e-01  1.3435803165566970e-01  1.8352013184717245e-01  -2.1953849933553649e-01  9.5097711944344104e-02  6.9016986300128391e-01  3.1705917505885961e-01  4.9511939732816354e-02  1.3558099697330519e+00  -1.8767100132127468e-01  -6.4686267882784432e-01  -5.7599766151698684e-01  1.1868571155106387e+00  -7.8100574213166951e-01  3.0018790010585655e-01  -1.5920199166063403e-01  6.7341633156588865e-01  -5.8290152146051133e-01  1.0278608164556415e+00  1.0278819379919162e+00  -9.1576042812582348e-01  -5.9355784744877538e-01  7.4410447141238689e-01  -1.0610033962321024e+00  -9.3610991652955844e-01  -2.0766026671153870e-01  -5.2127368110771577e-01  -2.2489987635356762e-01  -1.8746727005532265e-01  -4.0165444316807697e-01  1.0552245432018068e+00  -4.1164741282389072e-01  -4.3987984934219415e-01  -2.1889399225864933e-01  2.4970921489742537e-01  1.7743329783299919e+00  4.5603440128471678e-01  1.9634936134435406e+00  1.9489046533312342e+00  1.5519295880791411e+00  2.1849881332848858e-01  -3.7155528232612998e-02  1.4462576774198363e-01  4.3189197193763693e-03  1.2691040648882764e-02  -5.9883320536208506e-01  2.5408927298931622e-01  -5.0358540294600318e-01  1.3839449341897794e-01  -9.1651408285484560e-03  -6.1400583176018919e-01  -6.5968477814653281e-01  1.6657977331442655e-01  -1.0504473855161329e+00  -3.4870105665589368e-01  -6.3799306939762901e-01  -4.8725758286088183e-01  -5.4583515937456772e-01  6.4763512600881412e-01  4.3765691567809767e-02  1.2933119293866790e-01  -2.7900766000928351e-01  -8.9725136888779655e-01  4.3477343649401162e-01  -7.2528754767205572e-01  7.3642168595596635e-02  6.1462956299360404e-02  7.2640662137952394e-01  -8.4949707307244915e-01  -8.6790067465345403e-03  -7.0610674248664962e-01  4.4294644241633735e-02  3.8875603458618180e-01  4.8903608514002483e-01  3.5585949800579564e-01  -3.5680125644633426e-01  1.9168845329517250e+00  -8.8429811352519372e-02  1.8946995864922120e+00  1.7790191493070573e+00  1.5686968024375685e+00  1.1317591603208067e-01  -4.5390283045653140e-01  3.0275058382171513e-03  -5.6571583026706296e-01  9.3376056228153437e-01  1.7181469815285036e-01  -5.1706811168073918e-01  -7.5986659625820274e-01  4.3348511771346486e-02  -9.5462586538654970e-02  -6.9713543817485646e-01  1.1842744033564356e+00  -5.4737678667618017e-01  -4.7471628694442303e-01  -7.1066612335691626e-01  2.4967240617131065e-01  4.3863968835779865e-01  3.3998816309259286e-02  3.8367088840602032e-01  5.8954837607611010e-01  -3.4809840467008735e-01  -3.5936398396784314e-01  8.0964178328930780e-01  -5.6548570615409499e-01  -8.2905194048980502e-01  -5.6145075828731117e-01  -1.1495276972414014e-02  5.5909717944694148e-01  -5.8498745620187886e-01  3.1259541781127498e-02  -1.1271304944274509e+00  1.4262324422260018e+00  3.7006094008476251e-02  1.4687382989115603e+00  4.1569470616483600e-01  -9.1313167741217927e-01  -3.9716562555669949e-01  -6.3436055776665790e-01  -3.8023417575850393e-01  -1.0085887595814971e+00  4.6683508432967136e-01  -4.2933970490737591e-02  2.0386863856227661e-01  -1.1689790743629419e-02  -2.9914274163897986e-01  7.5863144188293985e-02  5.3242080326450281e-01  -4.0671832137315600e-01  -5.8243233703397657e-01  7.6677481655155796e-02  3.1636672608383815e-01  2.5599956279174847e-03  2.3432262709867430e-01  -5.9063252110205477e-01  -6.0762134862565076e-01  -5.8641767959343594e-01  -3.4334188474919386e-01  -5.8705892031558526e-01  1.6970635116460993e+00  -6.6371358544339965e-01  7.9118261955667027e-02  -3.2961664892101555e-01  2.3442112552137698e-01  -6.3815880504914648e-03  8.2997903130891404e-01  1.1079347093068528e+00  2.2184216684046404e-01  2.8673260228117953e-01  3.7652701462816313e-01  8.6677885630939394e-02  -1.0663850171736162e+00  -1.1462895200660055e+00  -7.2749599856621394e-01  2.0326372405452856e-01  3.0422887557230749e-01  -9.5830918504023824e-02  8.4061853921163099e-01  1.2293433282238753e+00  -4.3221095476300722e-02  1.7370471951199460e+00  -