<?xml version="1.0"?>
<VTKFile type="UnstructuredGrid"  version="0.1"  >
<UnstructuredGrid>
<Piece  NumberOfPoints="13211" NumberOfCells="25738">
<Points>
<DataArray  type="Float64"  NumberOfComponents="3"  format="ascii">0 0 0  0 0.41 0  2.2 0 0  2.2 0.41 0  0.2 0.25 0  0.25 0.2 0  0.2 0.15 0  0.15 0.2 0  0 0.4000000000000008 0  0 0.3900000000000259 0  0 0.3800000000000606 0  0 0.3700000000000953 0  0 0.3600000000001082 0  0 0.3500000000001241 0  0 0.3400000000001558 0  0 0.3300000000001905 0  0 0.3200000000002133 0  0 0.3100000000002381 0  0 0.3000000000002728 0  0 0.2900000000003075 0  0 0.2800000000003204 0  0 0.2700000000003551 0  0 0.2600000000003897 0  0 0.2500000000004243 0  0 0.2400000000004419 0  0 0.2300000000004503 0  0 0.2200000000004849 0  0 0.2100000000005195 0  0 0.2000000000005203 0  0 0.1900000000004874 0  0 0.1800000000004544 0  0 0.1700000000004476 0  0 0.1600000000004316 0  0 0.1500000000003986 0  0 0.1400000000003795 0  0 0.1300000000003759 0  0 0.1200000000003428 0  0 0.1100000000003098 0  0 0.1000000000002768 0  0 0.09000000000024383 0  0 0.08000000000021068 0  0 0.07000000000020096 0  0 0.0600000000001879 0  0 0.05000000000015475 0  0 0.04000000000012166 0  0 0.03000000000008857 0  0 0.02000000000005536 0  0 0.01000000000002221 0  0.009989435632539527 0 0  0.02002422863216034 0 0  0.03010458214659896 0 0  0.04023071070009817 0 0  0.05040281831825334 0 0  0.06062111264195305 0 0  0.07088580259443135 0 0  0.08119710623884197 0 0  0.0915552246193972 0 0  0.1019603803432692 0 0  0.1124127802127657 0 0  0.1229126400747952 0 0  0.1334601738297694 0 0  0.1440556060938479 0 0  0.1546991423307129 0 0  0.1653910115019241 0 0  0.1761314275360411 0 0  0.1869206104107236 0 0  0.1977587879835839 0 0  0.2086461722588868 0 0  0.2195829971733124 0 0  0.2305694803125714 0 0  0.2416058486712614 0 0  0.2526923271966015 0 0  0.2638291506365438 0 0  0.2750165371944069 0 0  0.2862547248324665 0 0  0.2975439403367008 0 0  0.3088844180099108 0 0  0.3202763889144969 0 0  0.331720084253362 0 0  0.3432157403894624 0 0  0.354763596474321 0 0  0.3663638894975614 0 0  0.3780168543160879 0 0  0.3897227288548639 0 0  0.4014817552245787 0 0  0.4132941771596065 0 0  0.4251602361051446 0 0  0.4370801753067579 0 0  0.4490542350294563 0 0  0.4610826666107568 0 0  0.4731657153873474 0 0  0.4853036289048568 0 0  0.497496658752101 0 0  0.5097450486025167 0 0  0.522049055933292 0 0  0.5344089314859007 0 0  0.54682493042369 0 0  0.5592973060217279 0 0  0.5718263126622336 0 0  0.5844122086150836 0 0  0.5970552544188596 0 0  0.6097557082607556 0 0  0.6225138263946209 0 0  0.6353298799989284 0 0  0.6482041248608439 0 0  0.6611368258521293 0 0  0.6741282510716649 0 0  0.6871786654070849 0 0  0.700288338182701 0 0  0.7134575363079365 0 0  0.7266865294648688 0 0  0.7399755947235903 0 0  0.7533249972222008 0 0  0.7667350157899537 0 0  0.7802059267321622 0 0  0.7937380038643175 0 0  0.8073315235581308 0 0  0.8209867662686268 0 0  0.8347040147797008 0 0  0.8484835493227763 0 0  0.8623256476112002 0 0  0.8762306027894561 0 0  0.8901986934639484 0 0  0.9042302067055019 0 0  0.9183254365274487 0 0  0.9324846644223977 0 0  0.9467081850175983 0 0  0.9609962908385431 0 0  0.9753492717763412 0 0  0.9897674271967082 0 0  1.004251049081965 0 0  1.018800435831829 0 0  1.033415884606165 0 0  1.048097708565765 0 0  1.062846183877004 0 0  1.077661635169635 0 0  1.09254434788593 0 0  1.107494641232941 0 0  1.122512822782632 0 0  1.13759919193447 0 0  1.152754073528631 0 0  1.16797776409742 0 0  1.183270567813464 0 0  1.198632828371634 0 0  1.214064835171658 0 0  1.229566910953568 0 0  1.245139378454 0 0  1.26078255749137 0 0  1.276496765005274 0 0  1.292282315095189 0 0  1.308139561657195 0 0  1.324068796006775 0 0  1.340070359192067 0 0  1.356144587087432 0 0  1.372291797708439 0 0  1.388512333088094 0 0  1.404806521214427 0 0  1.421174682078835 0 0  1.437617182342711 0 0  1.454134332913016 0 0  1.470726481062685 0 0  1.487393970914297 0 0  1.504137143482742 0 0  1.520956336717131 0 0  1.537851901025882 0 0  1.554824183359796 0 0  1.571873534294306 0 0  1.589000296868632 0 0  1.606204826353301 0 0  1.623487474810254 0 0  1.640848591136142 0 0  1.658288553388895 0 0  1.675807689174721 0 0  1.693406384562867 0 0  1.711084987318281 0 0  1.728843859489937 0 0  1.746683363990918 0 0  1.764603885516657 0 0  1.782605764710791 0 0  1.800689394365928 0 0  1.818855129698176 0 0  1.837103349488755 0 0  1.855434429092106 0 0  1.873848740482186 0 0  1.892346666779014 0 0  1.910928586141796 0 0  1.929594882742394 0 0  1.948345933453637 0 0  1.967182126082461 0 0  1.986103844936836 0 0  2.005111481369684 0 0  2.02420542931692 0 0  2.043386074627406 0 0  2.062653810123732 0 0  2.082009035466298 0 0  2.101452146706126 0 0  2.120983536333519 0 0  2.140603620890256 0 0  2.16031278386605 0 0  2.180111441835026 0 0  2.2 0.01952380952377155 0  2.2 0.03904761904754567 0  2.2 0.05857142857131769 0  2.2 0.07809523809506337 0  2.2 0.09761904761882542 0  2.2 0.1171428571425726 0  2.2 0.1366666666663299 0  2.2 0.1561904761900713 0  2.2 0.1757142857138491 0  2.2 0.1952380952375974 0  2.2 0.2147619047614049 0  2.2 0.2342857142852715 0  2.2 0.2538095238091086 0  2.2 0.2733333333329568 0  2.2 0.2928571428568123 0  2.2 0.3123809523806858 0  2.2 0.3319047619045595 0  2.2 0.3514285714283897 0  2.2 0.3709523809522634 0  2.2 0.3904761904761371 0  2.180111441835126 0.41 0  2.160312783866246 0.41 0  2.140603620890551 0.41 0  2.120983536333943 0.41 0  2.101452146706684 0.41 0  2.082009035466993 0.41 0  2.062653810124559 0.41 0  2.043386074628366 0.41 0  2.024205429318007 0.41 0  2.005111481370897 0.41 0  1.986103844938149 0.41 0  1.967182126083861 0.41 0  1.948345933455124 0.41 0  1.929594882743968 0.41 0  1.910928586143471 0.41 0  1.892346666780793 0.41 0  1.873848740484065 0.41 0  1.855434429094086 0.41 0  1.837103349490835 0.41 0  1.818855129700357 0.41 0  1.800689394368211 0.41 0  1.782605764713171 0.41 0  1.76460388551913 0.41 0  1.74668336399349 0.41 0  1.728843859492604 0.41 0  1.711084987321039 0.41 0  1.693406384565728 0.41 0  1.675807689177689 0.41 0  1.658288553391975 0.41 0  1.640848591139332 0.41 0  1.623487474813552 0.41 0  1.606204826356703 0.41 0  1.58900029687214 0.41 0  1.571873534297914 0.41 0  1.554824183363508 0.41 0  1.537851901029697 0.41 0  1.520956336721044 0.41 0  1.504137143486755 0.41 0  1.487393970918411 0.41 0  1.470726481066897 0.41 0  1.454134332917323 0.41 0  1.437617182347114 0.41 0  1.421174682083332 0.41 0  1.404806521219018 0.41 0  1.388512333092778 0.41 0  1.372291797713214 0.41 0  1.356144587092282 0.41 0  1.340070359196991 0.41 0  1.324068796011773 0.41 0  1.308139561662265 0.41 0  1.29228231510033 0.41 0  1.276496765010487 0.41 0  1.260782557496654 0.41 0  1.245139378459355 0.41 0  1.22956691095899 0.41 0  1.214064835177147 0.41 0  1.198632828377187 0.41 0  1.183270567819087 0.41 0  1.167977764103109 0.41 0  1.152754073534382 0.41 0  1.137599191940289 0.41 0  1.122512822788514 0.41 0  1.107494641238884 0.41 0  1.092544347891861 0.41 0  1.07766163517548 0.41 0  1.062846183882759 0.41 0  1.048097708571437 0.41 0  1.033415884611747 0.41 0  1.018800435837325 0.41 0  1.004251049087379 0.41 0  0.989767427202034 0.41 0  0.9753492717815766 0.41 0  0.9609962908436886 0.41 0  0.9467081850226546 0.41 0  0.9324846644273659 0.41 0  0.9183254365323295 0.41 0  0.9042302067102963 0.41 0  0.890198693468657 0.41 0  0.8762306027940785 0.41 0  0.8623256476157386 0.41 0  0.8484835493272309 0.41 0  0.834704014784073 0.41 0  0.8209867662729153 0.41 0  0.8073315235623375 0.41 0  0.7937380038684427 0.41 0  0.7802059267362063 0.41 0  0.7667350157939179 0.41 0  0.7533249972260854 0.41 0  0.7399755947273956 0.41 0  0.7266865294685951 0.41 0  0.7134575363115858 0.41 0  0.700288338186273 0.41 0  0.6871786654105809 0.41 0  0.6741282510750852 0.41 0  0.661136825855474 0.41 0  0.6482041248641139 0.41 0  0.635329880002125 0.41 0  0.6225138263977441 0.41 0  0.6097557082638059 0.41 0  0.5970552544218377 0.41 0  0.5844122086179906 0.41 0  0.5718263126650693 0.41 0  0.5592973060244935 0.41 0  0.5468249304263848 0.41 0  0.5344089314885268 0.41 0  0.5220490559358484 0.41 0  0.5097450486050057 0.41 0  0.4974966587545226 0.41 0  0.4853036289072119 0.41 0  0.4731657153896347 0.41 0  0.4610826666129786 0.41 0  0.4490542350316125 0.41 0  0.4370801753088496 0.41 0  0.425160236107172 0.41 0  0.4132941771615706 0.41 0  0.4014817552264796 0.41 0  0.3897227288567016 0.41 0  0.3780168543178639 0.41 0  0.3663638894992753 0.41 0  0.3547635964759739 0.41 0  0.3432157403910547 0.41 0  0.331720084254894 0.41 0  0.3202763889159703 0.41 0  0.3088844180113246 0.41 0  0.297543940338056 0.41 0  0.2862547248337628 0.41 0  0.2750165371956463 0.41 0  0.2638291506377428 0.41 0  0.2526923271977597 0.41 0  0.2416058486723771 0.41 0  0.2305694803136462 0.41 0  0.2195829971743464 0.41 0  0.2086461722598809 0.41 0  0.1977587879845344 0.41 0  0.1869206104116232 0.41 0  0.1761314275368915 0.41 0  0.1653910115027251 0.41 0  0.1546991423314648 0.41 0  0.1440556060945508 0.41 0  0.1334601738304229 0.41 0  0.1229126400753962 0.41 0  0.1124127802133126 0.41 0  0.1019603803437614 0.41 0  0.09155522461983345 0.41 0  0.08119710623922449 0.41 0  0.07088580259476274 0.41 0  0.06062111264223313 0.41 0  0.05040281831848725 0.41 0  0.04023071070028417 0.41 0  0.03010458214673717 0.41 0  0.02002422863225384 0.41 0  0.009989435632585586 0.41 0  0.2009941093832422 0.2499901164885035 0  0.2019878257548352 0.2499604698613656 0  0.2029807562584742 0.2499110718390977 0  0.2039725083485626 0.2498419419507366 0  0.2049626899453778 0.2497531075261239 0  0.2059509095900689 0.2496446036851018 0  0.2069367765994233 0.2495164733236293 0  0.2079199012203332 0.2493687670968211 0  0.208899894783849 0.2492015433989262 0  0.209876369858873 0.2490148683402368 0  0.2108489404052936 0.2488088157209575 0  0.2118172219266183 0.248583467002027 0  0.2127808316219855 0.248338911272912 0  0.2137393885375067 0.2480752452163837 0  0.2146925137168532 0.24779257
[...]
<PointData  Scalars="f_19"> 
<DataArray  type="Float64"  Name="f_19"  format="ascii">4.3813218199104667e+03  4.3791184172939138e+03  0.0000000000000000e+00  0.0000000000000000e+00  4.0434281980313440e+03  3.8307297519215376e+03  4.0428063789639377e+03  4.2644293046069834e+03  4.3819629250835915e+03  4.3883200401562090e+03  4.3978177442158021e+03  4.4083292124224545e+03  4.4206908405693275e+03  4.4331453138303195e+03  4.4456812661355007e+03  4.4593202328173675e+03  4.4722784195267977e+03  4.4844469753277563e+03  4.4965092846698426e+03  4.5085738116164812e+03  4.5183156034023423e+03  4.5279094876959571e+03  4.5363672913866358e+03  4.5435736131140948e+03  4.5496162003226200e+03  4.5539786792899931e+03  4.5574102986444323e+03  4.5587623737079412e+03  4.5596246984154759e+03  4.5575553765353307e+03  4.5553965535824136e+03  4.5502014355437623e+03  4.5447997128460784e+03  4.5380955424221238e+03  4.5303698940204304e+03  4.5205745439747971e+03  4.5099353983092760e+03  4.4993527393695285e+03  4.4868550608530595e+03  4.4741620413162518e+03  4.4612113394743819e+03  4.4486893594510748e+03  4.4356061420121150e+03  4.4227661860309736e+03  4.4107236588989899e+03  4.4002736820041191e+03  4.3908182954312479e+03  4.3839626287726469e+03  4.3779764210442045e+03  4.3707516483189365e+03  4.3606949229888287e+03  4.3485427993770136e+03  4.3346904921602236e+03  4.3193116836500130e+03  4.3028020925052506e+03  4.2851119765944604e+03  4.2664502080785278e+03  4.2469103049045270e+03  4.2265954973901908e+03  4.2055039871694835e+03  4.1837962885022125e+03  4.1614180577381703e+03  4.1385261691125397e+03  4.1151158121507297e+03  4.0912598438817718e+03  4.0670520651347451e+03  4.0425355182920857e+03  4.0177827025724014e+03  3.9928673521366759e+03  3.9678504947418114e+03  3.9427956383575597e+03  3.9177514506381508e+03  3.8927623744048656e+03  3.8678473823993772e+03  3.8430400239825390e+03  3.8183510340823054e+03  3.7937522988145561e+03  3.7692808968439695e+03  3.7449052395220497e+03  3.7206154526064570e+03  3.6964005254525978e+03  3.6722159760698873e+03  3.6480821517999993e+03  3.6239684254733907e+03  3.5998570735033686e+03  3.5757220898865389e+03  3.5515670095060264e+03  3.5273785579192268e+03  3.5031340527986990e+03  3.4788335388284308e+03  3.4544687795757645e+03  3.4300274953967892e+03  3.4055039205585026e+03  3.3808961779590263e+03  3.3561984958582693e+03  3.3314053532073472e+03  3.3065150113518011e+03  3.2815233641423965e+03  3.2564280064504187e+03  3.2312268034584704e+03  3.2059181653508122e+03  3.1804992791435934e+03  3.1549697186493190e+03  3.1293276037856731e+03  3.1035718603223568e+03  3.0777013398568370e+03  3.0517150839825490e+03  3.0256123053342171e+03  2.9993919577546512e+03  2.9730533989324244e+03  2.9465958356291148e+03  2.9200185777100210e+03  2.8933209641142876e+03  2.8665023244862177e+03  2.8395620469945875e+03  2.8124995089617173e+03  2.7853141108219329e+03  2.7580052601049983e+03  2.7305723601335417e+03  2.7030148327819575e+03  2.6753321136559994e+03  2.6475236035432413e+03  2.6195887404926384e+03  2.5915269432157756e+03  2.5633376310467152e+03  2.5350202376813659e+03  2.5065741762537214e+03  2.4779988685776229e+03  2.4492937339666182e+03  2.4204581810351137e+03  2.3914916271496568e+03  2.3623934856604219e+03  2.3331631584598426e+03  2.3038000277575534e+03  2.2743035467598434e+03  2.2446730703007584e+03  2.2149080283282024e+03  2.1850077865471917e+03  2.1549717357913951e+03  2.1247992779111237e+03  2.0944897663602078e+03  2.0640426116806193e+03  2.0334572074006223e+03  2.0027328681323368e+03  1.9718690179128171e+03  1.9408650106000732e+03  1.9097202064004221e+03  1.8784339645147145e+03  1.8470056532934254e+03  1.8154346453891480e+03  1.7837202349468055e+03  1.7518618395125814e+03  1.7198587783766520e+03  1.6877103807131830e+03  1.6554160113288649e+03  1.6229749864425223e+03  1.5903866507892110e+03  1.5576503651192538e+03  1.5247653964223887e+03  1.4917311237581366e+03  1.4585468525024246e+03  1.4252118950770628e+03  1.3917255695558156e+03  1.3580872003842881e+03  1.3242960870965587e+03  1.2903515359487913e+03  1.2562528460134486e+03  1.2219993312581530e+03  1.1875902816275845e+03  1.1530249928418159e+03  1.1183027673428571e+03  1.0834228491503152e+03  1.0483845831128431e+03  1.0131871972003923e+03  9.7782999595860656e+02  9.4231225537277896e+02  9.0663324964641527e+02  8.7079220947587066e+02  8.3478845360866683e+02  7.9862119649908175e+02  7.6228972775757347e+02  7.2579328986813152e+02  6.8913113213265785e+02  6.5230251063830963e+02  6.1530665916755345e+02  5.7814282143177081e+02  5.4081022909097283e+02  5.0330812842095713e+02  4.6563574381813692e+02  4.2779230668444262e+02  3.8977703432674076e+02  3.5158913887763106e+02  3.1322784864980883e+02  2.7469237800421610e+02  2.3598192763469487e+02  1.9709570543549975e+02  1.5803292644035940e+02  1.1879275756619067e+02  7.9374431839485595e+01  3.9777116117745258e+01  0.0000000000000000e+00  0.0000000000000000e+00  0.0000000000000000e+00  0.0000000000000000e+00  0.0000000000000000e+00  0.0000000000000000e+00  0.0000000000000000e+00  0.0000000000000000e+00  0.0000000000000000e+00  0.0000000000000000e+00  0.0000000000000000e+00  0.0000000000000000e+00  0.0000000000000000e+00  0.0000000000000000e+00  0.0000000000000000e+00  0.0000000000000000e+00  0.0000000000000000e+00  0.0000000000000000e+00  0.0000000000000000e+00  0.0000000000000000e+00  3.9777116542221016e+01  7.9374432696634855e+01  1.1879275887320782e+02  1.5803292822612761e+02  1.9709570773881904e+02  2.3598193050171798e+02  2.7469238149895108e+02  3.1322785284026202e+02  3.5158914385875795e+02  3.8977704019518137e+02  4.2779231356814120e+02  4.6563575185293132e+02  5.0330813776921076e+02  5.4081023994233283e+02  5.7814283400095144e+02  6.1530667371246238e+02  6.5230252742718289e+02  6.8913115149239366e+02  7.2579331218957884e+02  7.6228975344941784e+02  7.9862122603755870e+02  8.3478848754995977e+02  8.7079224848169486e+02  9.0663329442572149e+02  9.4231230667410034e+02  9.7783005476841709e+02  1.0131872645568670e+03  1.0483846602019055e+03  1.0834229373159305e+03  1.1183028681536455e+03  1.1530251079753914e+03  1.1875904130319548e+03  1.2219994813586413e+03  1.2562530169241886e+03  1.2903517307587324e+03  1.3242963089879627e+03  1.3580874529888943e+03  1.3917258568247946e+03  1.4252122216729283e+03  1.4585472237868025e+03  1.4917315452909584e+03  1.5247658751368476e+03  1.5576509077420060e+03  1.5903872658183295e+03  1.6229756830747506e+03  1.6554168002375925e+03  1.6877112740161649e+03  1.7198597887838762e+03  1.7518629814548949e+03  1.7837215248741254e+03  1.8154361030085443e+03  1.8470072973698525e+03  1.8784358189855309e+03  1.9097222967138734e+03  1.9408673672468481e+03  1.9718716690464291e+03  2.0027358534540526e+03  2.0334605658000560e+03  2.0640463882362405e+03  2.0944940107053585e+03  2.1248040441343860e+03  2.1549770861987913e+03  2.1850137910709914e+03  2.2149147590936286e+03  2.2446806138302577e+03  2.2743120001345992e+03  2.3038094923152084e+03  2.3331737461681905e+03  2.3624053250299630e+03  2.3915048705643703e+03  2.4204729759310781e+03  2.4493102587387143e+03  2.4780173133543417e+03  2.5065947594892909e+03  2.5350431877766359e+03  2.5633632114146685e+03  2.5915554446555511e+03  2.6196204653699024e+03  2.6475589199458013e+03  2.6753714016884774e+03  2.7030585268586365e+03  2.7306209047402394e+03  2.7580591694168438e+03  2.7853739629246588e+03  2.8125659501646523e+03  2.8396357388574834e+03  2.8665839788295930e+03  2.8934114815379207e+03  2.9201188200936190e+03  2.9467067979592844e+03  2.9731761968676328e+03  2.9995277539782433e+03  3.0257624635542925e+03  3.0518809003442589e+03  3.0778844880375814e+03  3.1037738314931389e+03  3.1295503894709700e+03  3.1552152813474736e+03  3.1807700340806073e+03  3.2062161367750241e+03  3.2315546091193496e+03  3.2567883434441264e+03  3.2819189299355139e+03  3.3069496255453314e+03  3.3318819670073058e+03  3.3567195282155290e+03  3.3814665183817256e+03  3.4061266080218038e+03  3.4307054746753793e+03  3.4552065245078593e+03  3.4796427478971091e+03  3.5040054318482339e+03  3.5283186017647404e+03  3.5525910849552652e+03  3.5768165254258383e+03  3.6010202972865527e+03  3.6252167299751932e+03  3.6494064879057951e+03  3.6736092010753969e+03  3.6978443560875708e+03  3.7221201927119014e+03  3.7464468127221921e+03  3.7708439722058283e+03  3.7953151440981937e+03  3.8198650521985778e+03  3.8445028102507872e+03  3.8692169615454891e+03  3.8939892582459534e+03  3.9188142431941542e+03  3.9436594528489290e+03  3.9684783654460516e+03  3.9932349878481573e+03  4.0178746797482986e+03  4.0423424362672431e+03  4.0665708256505545e+03  4.0905132689569368e+03  4.1141005810096185e+03  4.1372669919465516e+03  4.1599639632166018e+03  4.1821325851358370e+03  4.2037170920785775e+03  4.2246460140975605e+03  4.2448912957711318e+03  4.2643426823919881e+03  4.2829065446653076e+03  4.3005697054077282e+03  4.3171672564570390e+03  4.3323773646563768e+03  4.3463274452774731e+03  4.3583415463120800e+03  4.3683968812989842e+03  4.3757378864552147e+03  4.0391516982841313e+03  4.0348757556019837e+03  4.0306081948710366e+03  4.0263519934485203e+03  4.0220978974949817e+03  4.0178655743180670e+03  4.0136327956931646e+03  4.0094265821637109e+03  4.0052251700058882e+03  4.0010449971014132e+03  3.9968876353381233e+03  3.9927494431871405e+03  3.9886254294623905e+03  3.9845313021363486e+03  3.9804669526361054e+03  3.9764237310486874e+03  3.9724038748471603e+03  3.9684234290509517e+03  3.9644650256546879e+03  3.9605431688963072e+03  3.9566631101232151e+03  3.9528078913726426e+03  3.9489917972085213e+03  3.9452216632307045e+03  3.9414830124626023e+03  3.9377879290356273e+03  3.9341432611482232e+03  3.9305358628476561e+03  3.9269722048261765e+03  3.9234584239992678e+03  3.9199865032633952e+03  3.9165751936563770e+03  3.9132120423703213e+03  3.9098949564275240e+03  3.9066310856372174e+03  3.9034306395226017e+03  3.9002765160510444e+03  3.8971882340083507e+03  3.8941494771269099e+03  3.8911782786673261e+03  3.8882625846133183e+03  3.8854014777777275e+03  3.8826169540179944e+03  3.8798902645548969e+03  3.8772235814865189e+03  3.8746270172377381e+03  3.8720950004596166e+03  3.8696388950448049e+03  3.8672408500788288e+03  3.8649129764413192e+03  3.8626600749838299e+03  3.8604738525634798e+03  3.8583685341208970e+03  3.8563249432610355e+03  3.8543599983736258e+03  3.8524660294828068e+03  3.8506545782990006e+03  3.8489133914867698e+03  3.8472497288470286e+03  3.8456599794609388e+03  3.8441503902595832e+03  3.8427160220086034e+03  3.8413678435602023e+03  3.8400911023218000e+03  3.8388987054717463e+03  3.8377827369148977e+03  3.8367472883678620e+03  3.8357987294265222e+03  3.8349216013544842e+03  3.8341359781264000e+03  3.8334219728314133e+03  3.8327974792228579e+03  3.8322557779941335e+03  3.8317927123282798e+03  3.8314147917067326e+03  3.8311195145790675e+03  3.8309061255872293e+03  3.8307797101676870e+03  3.8307650393589806e+03  3.8308860683836388e+03  3.8310914653877389e+03  3.8313727019083503e+03  3.8317419030650408e+03  3.8321956808454165e+03  3.8327299089628186e+03  3.8333455266732381e+03  3.8340463579623665e+03  3.8348269708729872e+03  3.8356858222623823e+03  3.8366321110758099e+03  3.8376515403550143e+03  3.8387588140736466e+03  3.8399436777621790e+03  3.8412089741604436e+03  3.8425553554446979e+03  3.8439745126975840e+03  3.8454772069495812e+03  3.8470528575639887e+03  3.8487094790896635e+03  3.8504384270452169e+03  3.8522480482682786e+03  3.8541279010923367e+03  3.8560856898895049e+03  3.8581134318078116e+03  3.8602183555714305e+03  3.8623896959183335e+03  3.8646399617208972e+03  3.8669564852466660e+03  3.8693436700917314e+03  3.8717959732833665e+03  3.8743217707235035e+03  3.8769054295567885e+03  3.8795621526991058e+03  3.8822784922317978e+03  3.8850643734274449e+03  3.8879079408172815e+03  3.8908183210965285e+03  3.8937849503025113e+03  3.8968140777564149e+03  3.8999002253057806e+03  3.9030367326796809e+03  3.9062391071760690e+03  3.9094858816707001e+03  3.9127949286805674e+03  3.9161480836852024e+03  3.9195616438582492e+03  3.9230169067565917e+03  3.9265281161864846e+03  3.9300790022466767e+03  3.9336826046073656e+03  3.9373233275733292e+03  3.9410129558070994e+03  3.9447378608788199e+03  3.9485119989740733e+03  3.9523153593003740e+03  3.9561618767427185e+03  3.9600376164523591e+03  3.9639559671574270e+03  3.9679007665826562e+03  3.9718817253772618e+03  3.9758850558582417e+03  3.9799282879125153e+03  3.9839899079733150e+03  3.9880813794387286e+03  3.9921891723159829e+03  3.9963288805737993e+03  4.0004820195013986e+03  4.0046463842333433e+03  4.0088440049086976e+03  4.0130493687836979e+03  4.0172746796026750e+03  4.0214997068018856e+03  4.0257491186508300e+03  4.0300017038289106e+03  4.0342640458951910e+03  4.0385350376838628e+03  4.0470842542164728e+03  4.0513618989061315e+03  4.0556318312324020e+03  4.0599060846303237e+03  4.0641768726235923e+03  4.0684425077097130e+03  4.0727052572778125e+03  4.0769503296387388e+03  4.0811942286266240e+03  4.0854173613720104e+03  4.0896375002559707e+03  4.0938341946936125e+03  4.0980210138380135e+03  4.1021853997713515e+03  4.1063388811006207e+03  4.1104592776802883e+03  4.1145640545227161e+03  4.1186376676950567e+03  4.1226960210223215e+03  4.1267178457642613e+03  4.1307045888706416e+03  4.1346767228805347e+03  4.1386073114011033e+03  4.1425105247815700e+03  4.1463640227160658e+03  4.1501870427341873e+03  4.1539723365364825e+03  4.1577258404854538e+03  4.1614251785114757e+03  4.1650953373393668e+03  4.1687087445121042e+03  4.1722770567336775e+03  4.1758054410665654e+03  4.1792837254703336e+03  4.1827023151332032e+03  4.1860826845916763e+03  4.1893993163699679e+03  4.1926592037700912e+03  4.1958742993844344e+03  4.1990262927998601e+03  4.2021160037381705e+03  4.2051443745462002e+03  4.2081167885906716e+03  4.2110261319212559e+03  4.2138665444987355e+03  4.2166475627351037e+03  4.2193567073479417e+03  4.2219985612951041e+03  4.2245727338648312e+03  4.2270710412992776e+03  4.2295035194911698e+03  4.2318584311817613e+03  4.2341450803595935e+03  4.2363489193245669e+03  4.2384818699988446e+03  4.2405318925114389e+03  4.2425090933288338e+03  4.2444017173486309e+03  4.2462194196367700e+03  4.2479499262846984e+03  4.2496035036339799e+03  4.2511676624454112e+03  4.2526508843512356e+03  4.2540539461389799e+03  4.2553633743826431e+03  4.2565870315413304e+03  4.2577282491568594e+03  4.2587791441730324e+03  4.2597437158286621e+03  4.2606166599167700e+03  4.2614034061685652e+03  4.2620960765801829e+03  4.2627021249330601e+03  4.2632196901674988e+03  4.2636436079200630e+03  4.2639782437762633e+03  4.2642114160924584e+03  4.2643710664076079e+03  4.2643925458268577e+03  4.2642703728545994e+03  4.2640548558494593e+03  4.2637481172734842e+03  4.2633489488675996e+03  4.2628641111889392e+03  4.2622830691304616e+03  4.2616137008191899e+03  4.2608557123795799e+03  4.2599997344955564e+03  4.2590647015656868e+03  4.2580342777638116e+03  4.2569158523010528e+03  4.2557150199276457e+03  4.2544231638207548e+03  4.2530499555190918e+03  4.2515852096614162e+03  4.2500380781094609e+03  4.2484107417426185e+03  4.2466932359819439e+03  4.2448995409329709e+03  4.2430231633553576e+03  4.2410665797280089e+03  4.2390289488818971e+03  4.2369152186948213e+03  4.2347237406467384e+03  4.2324542912695379e+03  4.2301110022989305e+03  4.2276941767083081e+03  4.2252022481440736e+03  4.2226448828044649e+03  4.2200126798865313e+03  4.2173133641056538e+03  4.2145445206537133e+03  4.2117139253972400e+03  4.2088092984495506e+03  4.2058517996227865e+03  4.2028226563080125e+03  4.1997342048821547e+03  4.1965881460469755e+03  4.1933895842844677e+03  4.1901305570301074e+03  4.1868153426154222e+03  4.1834399361552714e+03  4.1800214410909221e+03  4.1765426876553238e+03  4.1730246973519170e+03  4.1694468609044980e+03  4.1658313784405391e+03  4.1621778519113532e+03  4.1584662970563249e+03  4.1547190555591742e+03  4.1509253627270646e+03  4.1470949642821051e+03  4.1432381237294630e+03  4.1393343108446534e+03  4.1354043885362407e+03  4.1314295365025437e+03  4.1274350373430589e+03  4.1234034363786250e+03  4.1193556248712730e+03  4.1152677015049985e+03  4.1111665291380914e+03  4.1070301710349513e+03  4.1028853269565661e+03  4.0987105080063038e+03  4.0945286388865034e+03  4.0903211577997454e+03  4.0860959580860326e+03  4.0818627837248177e+03  4.0776233974689103e+03  4.0733685714786689e+03  4.0690980796195308e+03  4.0648295487999289e+03  4.0605493424652941e+03  4.0562693592050509e+03  4.0519934234108969e+03  4.0477114620171901e+03  3.4900885090570928e+03  3.6936106146723819e+03  3.6902777472098555e+03  3.7932877883667061e+03  3.8682164507640332e+03  4.0551550927405078e+03  4.2767154715601273e+03  4.3607769133751199e+03  4.3493767950291822e+03  4.2130827597118896e+03  4.0376681046941994e+03  3.7641277916493855e+03  3.9177998272456630e+03  3.8489473631105288e+03  3.9534165872920385e+03  3.7814740998037323e+03  3.8309977501352560e+03  4.1595096010031693e+03  4.2582174888301324e+03  4.2477729609653688e+03  4.1439000277451823e+03  4.2903410142257435e+03  4.3010873627874871e+03  4.0535326196777914e+03  4.0446081921717682e+03  3.8073302169164458e+03  3.8418814869590196e+03  3.0848471640018979e+03  3.9672854800160189e+03  3.8946380210470879e+03  2.6749142996318924e+03  4.2635551800934463e+03  3.8232482204762855e+03  3.8904433278452557e+03  3.9524171787953205e+03  4.2431698624974042e+03  4.1887292261653929e+03  4.2165439471512382e+03  4.1531276224130106e+03  2.2648071588433268e+03  4.2802404348937680e+03  1.8547344609026486e+03  4.0111164211261703e+03  4.0898354888952099e+03  3.8170779502700266e+03  4.0984980010141417e+03  4.2730422600735483e+03  1.4489037746135998e+03  3.8575551617111232e+03  1.0453193483097587e+03  4.2617807886031551e+03  3.5910039205032294e+03  4.0458111587365597e+03  6.2185213995588617e+02  3.9976400407782262e+03  3.9467531778334132e+03  3.8249329706936019e+03  3.8389271031230132e+03  3.2938320956289576e+03  3.8607545842880163e+03  3.2936335609517964e+03  4.1395659297151597e+03  4.2120600261722539e+03  2.8823634489945021e+03  2.8799104411027847e+03  4.1754680777164986e+03  4.1790538928560554e+03  3.4973930702838707e+03  4.2355125981476867e+03  3.8311660774283268e+03  3.8455030092373345e+03  3.9250449611500489e+03  4.2566484526926115e+03  3.9109509952548742e+03  4.3153968874328293e+03  2.4669889651351209e+03  2.4751804880873547e+03  4.2403746133567174e+03  4.2700431298215262e+03  4.2657032833592120e+03  4.1805836006755299e+03  3.8962188606675695e+03  3.9611464377518869e+03  4.0802685699524536e+03  4.1277220418486368e+03  4.2078723809282637e+03  3.7470710027016958e+03  2.0568768365424589e+03  2.0597698366143277e+03  4.3476681792727295e+03  4.0534663709111637e+03  3.2151494051425072e+02  3.8265320369064893e+03  3.8837796838443587e+03  3.0951655580275692e+03  3.0941057186751441e+03  1.6496142906300772e+03  1.6496138620777190e+03  3.9930631363304246e+03  4.0941046627784863e+03  3.6708949065473143e+03  1.2393719485561214e+03  1.2393718594551228e+03  2.6799844596505104e+03  2.6797475741792878e+03  3.7457032531325131e+03  3.9621272312239976e+03  3.9216612256119342e+03  4.3916377090728756e+03  4.2651633341669840e+03  8.3220452502077751e+02  8.2920238096498178e+02  2.2699898946219209e+03  2.2690946483706903e+03  3.4345425567399984e+03  4.1090426367035425e+03  4.2931804378426668e+03  4.1252468978401921e+03  4.1501762320646299e+02  4.0280833454605190e+03  3.7815300100074965e+03  3.9843831786263900e+03  4.2561625430482100e+03  3.6124605801791395e+03  4.2014351107403181e+03  4.1536142782779507e+03  4.3506183278049029e+03  3.9728091549987244e+03  3.8632658491929574e+03  3.8344945548167875e+03  4.0242209421355619e+03  1.8639539309231050e+03  1.8631337871241385e+03  3.9092365631796156e+03  3.3308110294117832e+03  4.2230375815517536e+03  4.4410611626612235e+03  3.5836441379764251e+03  3.6564317114490336e+03  4.2424249770804545e+03  3.7356290382877996e+03  3.6926983120647860e+03  4.3051121529193751e+03  4.3251603830388467e+03  3.7917937515231429e+03  3.8789095477837300e