<?xml version="1.0"?>
<VTKFile type="UnstructuredGrid"  version="0.1"  >
<UnstructuredGrid>
<Piece  NumberOfPoints="5712" NumberOfCells="10893">
<Points>
<DataArray  type="Float64"  NumberOfComponents="3"  format="ascii">0 0 0  0 0.41 0  2.2 0 0  2.2 0.41 0  0.2 0.25 0  0.25 0.2 0  0.2 0.15 0  0.15 0.2 0  0 0.3904761904762147 0  0 0.3709523809524729 0  0 0.3514285714286954 0  0 0.3319047619049458 0  0 0.3123809523811823 0  0 0.2928571428574404 0  0 0.2733333333336768 0  0 0.2538095238099349 0  0 0.2342857142861567 0  0 0.2147619047624078 0  0 0.1952380952385999 0  0 0.1757142857147328 0  0 0.1561904761908952 0  0 0.1366666666670465 0  0 0.1171428571431906 0  0 0.09761904761931661 0  0 0.0780952380954425 0  0 0.05857142857161174 0  0 0.03904761904773757 0  0 0.01952380952386334 0  0.01986745845578998 0 0  0.03982462845278956 0 0  0.05987191195217309 0 0  0.0800097046343772 0 0  0.1002384394563812 0 0  0.1205585077310739 0 0  0.1409703274044529 0 0  0.1614743126654433 0 0  0.1820708739963059 0 0  0.2027604497544275 0 0  0.2235434355718665 0 0  0.2444202633435119 0 0  0.265391361068545 0 0  0.2864571529028895 0 0  0.3076180592107884 0 0  0.3288745151942862 0 0  0.3502269459367295 0 0  0.3716757933139423 0 0  0.3932214934733583 0 0  0.4148644812710909 0 0  0.4366051859408088 0 0  0.4584440653716539 0 0  0.48038154995608 0 0  0.5024180900849111 0 0  0.5245541321026944 0 0  0.5467901197490906 0 0  0.5691265226973262 0 0  0.5915637755827025 0 0  0.614102339850345 0 0  0.636742674167927 0 0  0.6594852330945143 0 0  0.6823304884387933 0 0  0.7052788907288091 0 0  0.7283309147437839 0 0  0.751487030986726 0 0  0.7747477057419434 0 0  0.7981134011315298 0 0  0.821584610595033 0 0  0.8451617959659341 0 0  0.8688454391891771 0 0  0.8926360178861791 0 0  0.9165340281873645 0 0  0.9405399372917173 0 0  0.9646542424736072 0 0  0.9888774365267383 0 0  1.013210007824441 0 0  1.037652440378865 0 0  1.06220524733373 0 0  1.086868914509785 0 0  1.111643945154348 0 0  1.136530838720734 0 0  1.161530116277625 0 0  1.186642266933783 0 0  1.211867807739771 0 0  1.237207251805963 0 0  1.26266110764717 0 0  1.288229902058941 0 0  1.313914143782356 0 0  1.339714360040014 0 0  1.36563107331828 0 0  1.391664802767304 0 0  1.417816093074858 0 0  1.444085461454821 0 0  1.470473442759746 0 0  1.496980573539167 0 0  1.523607398041112 0 0  1.550354449227912 0 0  1.577222271446548 0 0  1.60421140927435 0 0  1.631322413213628 0 0  1.658555830029694 0 0  1.685912218634225 0 0  1.713392126884173 0 0  1.740996123438425 0 0  1.768724751279777 0 0  1.796578588883932 0 0  1.824558192783585 0 0  1.852664140769835 0 0  1.880896988683294 0 0  1.909257322654582 0 0  1.93774570990443 0 0  1.966362727809846 0 0  1.995108970713317 0 0  2.023985006033532 0 0  2.052991427225145 0 0  2.082128822851723 0 0  2.111397799134646 0 0  2.140798904430552 0 0  2.170332790993664 0 0  2.2 0.02928571428565775 0  2.2 0.05857142857131794 0  2.2 0.08785714285694929 0  2.2 0.1171428571425731 0  2.2 0.1464285714282011 0  2.2 0.1757142857138497 0  2.2 0.2049999999994743 0  2.2 0.2342857142852724 0  2.2 0.2635714285710462 0  2.2 0.2928571428568132 0  2.2 0.3221428571426234 0  2.2 0.3514285714283903 0  2.2 0.3807142857142005 0  2.170332790993718 0.41 0  2.140798904430656 0.41 0  2.111397799134855 0.41 0  2.082128822859404 0.41 0  2.052991427232898 0.41 0  2.023985006041361 0.41 0  1.99510897072121 0.41 0  1.966362727817755 0.41 0  1.937745709912357 0.41 0  1.90925732266254 0.41 0  1.880896988691295 0.41 0  1.852664140777879 0.41 0  1.824558192791673 0.41 0  1.79657858889206 0.41 0  1.768724751287952 0.41 0  1.740996123446639 0.41 0  1.713392126892427 0.41 0  1.685912218642533 0.41 0  1.658555830038071 0.41 0  1.631322413222075 0.41 0  1.604211409282859 0.41 0  1.577222271455122 0.41 0  1.55035444923655 0.41 0  1.523607398049813 0.41 0  1.496980573547932 0.41 0  1.470473442768574 0.41 0  1.444085461463712 0.41 0  1.417816093083807 0.41 0  1.391664802776313 0.41 0  1.365631073327341 0.41 0  1.339714360049107 0.41 0  1.31391414379148 0.41 0  1.288229902068097 0.41 0  1.262661107656355 0.41 0  1.237207251815179 0.41 0  1.211867807749015 0.41 0  1.186642266943055 0.41 0  1.161530116286924 0.41 0  1.13653083873006 0.41 0  1.111643945163706 0.41 0  1.086868914519036 0.41 0  1.062205247342763 0.41 0  1.037652440387677 0.41 0  1.013210007833036 0.41 0  0.9888774365351134 0.41 0  0.9646542424817568 0.41 0  0.9405399372996428 0.41 0  0.916534028195068 0.41 0  0.8926360178936621 0.41 0  0.8688454391964415 0.41 0  0.8451617959729809 0.41 0  0.8215846106018625 0.41 0  0.7981134011381465 0.41 0  0.7747477057483507 0.41 0  0.7514870309929218 0.41 0  0.7283309147497725 0.41 0  0.7052788907345926 0.41 0  0.6823304884443711 0.41 0  0.6594852330998913 0.41 0  0.6367426741731019 0.41 0  0.6141023398553211 0.41 0  0.5915637755874821 0.41 0  0.5691265227019089 0.41 0  0.5467901197534788 0.41 0  0.5245541321068876 0.41 0  0.5024180900889137 0.41 0  0.4803815499598949 0.41 0  0.458444065375283 0.41 0  0.4366051859442526 0.41 0  0.4148644812743503 0.41 0  0.3932214934764355 0.41 0  0.3716757933168389 0.41 0  0.3502269459394474 0.41 0  0.3288745151968251 0.41 0  0.3076180592131517 0.41 0  0.2864571529050777 0.41 0  0.2653913610705745 0.41 0  0.2444202633453989 0.41 0  0.2235434355736121 0.41 0  0.202760449756034 0.41 0  0.1820708739977555 0.41 0  0.1614743126667344 0.41 0  0.140970327405586 0.41 0  0.120558507732039 0.41 0  0.1002384394571796 0.41 0  0.08000970463500767 0.41 0  0.05987191195264252 0.41 0  0.03982462845310097 0.41 0  0.01986745845594617 0.41 0  0.2009941093832422 0.2499901164885035 0  0.2019878257548352 0.2499604698613656 0  0.2029807562584742 0.2499110718390977 0  0.2039725083485626 0.2498419419507366 0  0.2049626899453778 0.2497531075261239 0  0.2059509095900689 0.2496446036851018 0  0.2069367765994233 0.2495164733236293 0  0.2079199012203332 0.2493687670968211 0  0.208899894783849 0.2492015433989262 0  0.209876369858873 0.2490148683402368 0  0.2108489404052936 0.2488088157209575 0  0.2118172219266183 0.248583467002027 0  0.2127808316219855 0.248338911272912 0  0.2137393885375067 0.2480752452163837 0  0.2146925137168532 0.2477925730703012 0  0.2156398303510693 0.247491006586403 0  0.2165809639275547 0.2471706649861239 0  0.2175155423781385 0.2468316749134561 0  0.2184431962261471 0.2464741703848905 0  0.2193635587324768 0.2460982927364335 0  0.2202762660405913 0.2457041905677276 0  0.2211809573203641 0.2452920196833053 0  0.2220772749107273 0.2448619430309942 0  0.2229648644610677 0.2444141306374986 0  0.2238433750713457 0.2439487595411649 0  0.2247124594307593 0.2434660137220228 0  0.2255717739550953 0.2429660840290282 0  0.2264209789225549 0.2424491681046155 0  0.227259738608055 0.2419154703065648 0  0.2280877214159585 0.2413652016272072 0  0.2289046000111568 0.2407985796100187 0  0.2297100514485014 0.2402158282636004 0  0.2305037573004443 0.2396171779731418 0  0.2312854037829426 0.2390028654093291 0  0.2320546818795267 0.2383731334347658 0  0.2328112874634348 0.2377282310079845 0  0.2335549214178666 0.2370684130850081 0  0.2342852897542382 0.2363939405185524 0  0.23500210372839 0.2357050799549172 0  0.2357050799547543 0.2350021037285561 0  0.236393940518396 0.2342852897544042 0  0.2370684130848552 0.2335549214180355 0  0.2377282310078377 0.2328112874636036 0  0.2383731334346237 0.2320546818796969 0  0.2390028654091947 0.2312854037831102 0  0.2396171779730177 0.2305037573006055 0  0.2402158282634863 0.2297100514486559 0  0.2407985796099098 0.2289046000113105 0  0.2413652016271038 0.2280877214161108 0  0.2419154703064672 0.2272597386082051 0  0.2424491681045289 0.2264209789226942 0  0.2429660840289533 0.2255717739552211 0  0.2434660137219522 0.2247124594308835 0  0.2439487595410967 0.2238433750714713 0  0.2444141306374335 0.2229648644611936 0  0.2448619430309386 0.2220772749108404 0  0.2452920196832561 0.2211809573204692 0  0.2457041905676833 0.2202762660406911 0  0.2460982927363924 0.2193635587325747 0  0.246474170384854 0.2184431962262392 0  0.2468316749134214 0.2175155423782314 0  0.2471706649860917 0.216580963927646 0  0.2474910065863757 0.215639830351152 0  0.2477925730702761 0.2146925137169349 0  0.2480752452163603 0.2137393885375889 0  0.2483389112728914 0.2127808316220633 0  0.248583467002012 0.2118172219266803 0  0.2488088157209458 0.2108489404053462 0  0.2490148683402261 0.2098763698589259 0  0.249201543398917 0.2088998947838999 0  0.2493687670968142 0.2079199012203759 0  0.2495164733236233 0.2069367765994661 0  0.2496446036850975 0.205950909590105 0  0.2497531075261207 0.2049626899454101 0  0.2498419419507343 0.2039725083485922 0  0.2499110718390968 0.2029807562584889 0  0.2499604698613655 0.2019878257548365 0  0.2499901164885035 0.2009941093832422 0  0.2499901164885035 0.1990058906167579 0  0.2499604698613656 0.1980121742451648 0  0.2499110718390977 0.1970192437415259 0  0.2498419419507366 0.1960274916514374 0  0.2497531075261239 0.1950373100546222 0  0.2496446036851018 0.1940490904099311 0  0.2495164733236293 0.1930632234005767 0  0.2493687670968211 0.1920800987796668 0  0.2492015433989262 0.191100105216151 0  0.2490148683402368 0.190123630141127 0  0.2488088157209575 0.1891510595947065 0  0.248583467002027 0.1881827780733817 0  0.248338911272912 0.1872191683780146 0  0.2480752452163837 0.1862606114624933 0  0.2477925730703012 0.1853074862831468 0  0.247491006586403 0.1843601696489307 0  0.2471706649861239 0.1834190360724454 0  0.2468316749134561 0.1824844576218615 0  0.2464741703848905 0.181556803773853 0  0.2460982927364335 0.1806364412675232 0  0.2457041905677276 0.1797237339594087 0  0.2452920196833053 0.1788190426796359 0  0.2448619430309942 0.1779227250892727 0  0.2444141306374986 0.1770351355389324 0  0.2439487595411649 0.1761566249286543 0  0.2434660137220228 0.1752875405692407 0  0.2429660840290282 0.1744282260449047 0  0.2424491681046155 0.1735790210774451 0  0.2419154703065648 0.172740261391945 0  0.2413652016272072 0.1719122785840415 0  0.2407985796100187 0.171095
[...]
<PointData  Scalars="f_19"> 
<DataArray  type="Float64"  Name="f_19"  format="ascii">6.1332678453599643e-01  4.1712726342659606e-01  0.0000000000000000e+00  0.0000000000000000e+00  -1.2500867437827758e+00  -4.8723891088395005e-01  -6.3702207703335501e-01  1.9970175593985393e+00  4.1715565868426635e-01  4.2232524729401377e-01  4.3799823688459139e-01  4.6746575307818189e-01  5.1292524571127673e-01  5.7218671829343926e-01  6.4153167929511079e-01  7.1353432498302427e-01  7.7874540948948268e-01  8.2654638112765366e-01  8.4934052160141593e-01  8.4620276958288410e-01  8.1992085344076537e-01  7.7827614431807979e-01  7.3178836690936322e-01  6.8838780320055648e-01  6.5377710246491016e-01  6.3041583106437959e-01  6.1761905440635645e-01  6.1342359000140534e-01  6.1212356485488295e-01  6.0950206952202279e-01  6.0479056940321774e-01  5.9724858222247790e-01  5.8581229227629983e-01  5.6903692586429222e-01  5.4560505769851075e-01  5.1486334223108676e-01  4.7734566349236685e-01  4.3522391329907317e-01  3.9178744859074183e-01  3.5086849161390199e-01  3.1442232371002460e-01  2.8428976278704943e-01  2.5968891958085866e-01  2.3962838779453696e-01  2.2191073198388916e-01  2.0437011680331058e-01  1.8328025237565421e-01  1.5714990407954668e-01  1.2579164061011525e-01  9.2242935747032073e-02  6.1283888691376749e-02  4.2435244716121923e-02  4.2519366026961783e-02  6.2531688138866753e-02  9.9620579209040300e-02  1.4748524726105641e-01  1.9826482830706404e-01  2.4745439520634208e-01  2.9036752610228611e-01  3.2436544899354225e-01  3.4197400856804622e-01  3.4710001552058745e-01  3.3854626489304923e-01  3.2376556431733999e-01  3.0286871622378053e-01  2.7618614659194440e-01  2.4379675788891095e-01  2.0351188762397654e-01  1.5816601741217209e-01  1.0915646626815599e-01  6.8529016895260586e-02  4.3615171325473691e-02  5.0650193211556727e-02  8.7303671115100803e-02  1.4951995375880006e-01  2.1992259516390222e-01  2.7729636092879395e-01  3.0298116854247709e-01  3.1579332111457847e-01  3.0198147710987228e-01  2.7462913915119641e-01  2.3125972354806659e-01  1.7444571619604715e-01  1.0479243104023611e-01  3.6039650029062988e-02  -1.5266905245255211e-02  -3.7422220562385408e-02  -2.5307854500734198e-02  1.4244382488267713e-02  7.0076680632947738e-02  1.2442596466157854e-01  1.7321806100509093e-01  2.0623060147356001e-01  2.1292674992971108e-01  2.0693885664431214e-01  1.7857872492332785e-01  1.3771295049639881e-01  8.4892855696505412e-02  3.0036652268080260e-02  -2.1141556868889015e-02  -5.6330356176942785e-02  -6.0648438211554773e-02  -4.4714455524066964e-02  -6.2316773500511692e-03  4.2106725746781933e-02  8.4899846104249790e-02  1.1897161947866208e-01  1.3650239250132612e-01  1.3890937521433661e-01  1.2225759241453893e-01  9.1454235476577689e-02  5.2887408920581053e-02  7.5928909658054449e-03  -2.9472250074604991e-02  -5.0423548501129810e-02  -4.9887578850585014e-02  -3.0051075607179255e-02  0.0000000000000000e+00  0.0000000000000000e+00  0.0000000000000000e+00  0.0000000000000000e+00  0.0000000000000000e+00  0.0000000000000000e+00  0.0000000000000000e+00  0.0000000000000000e+00  0.0000000000000000e+00  0.0000000000000000e+00  0.0000000000000000e+00  0.0000000000000000e+00  0.0000000000000000e+00  3.3601665914680702e-02  5.6603575772006622e-02  6.8987380431947937e-02  6.1568235588901912e-02  4.1313926697833563e-02  8.2797509706169295e-03  -2.9152568490847981e-02  -5.8992500720861610e-02  -7.4490702664993261e-02  -6.7821500691104153e-02  -3.6276705045770380e-02  5.1226623982426316e-03  5.6678953424115594e-02  1.0417732729138537e-01  1.4224121965067338e-01  1.6309483049536130e-01  1.6813389518405089e-01  1.5439833565913674e-01  1.2282838345265597e-01  8.0914495685300042e-02  3.2656965632645224e-02  -1.0835648726778059e-02  -4.0016674158305371e-02  -4.1042590665537858e-02  -2.0328588310589136e-02  3.4580522195760258e-02  9.8429913851828740e-02  1.6028833579222612e-01  2.1527485773780350e-01  2.5315751250056040e-01  2.7244324625462918e-01  2.6863957508476005e-01  2.4165016387668742e-01  1.9235831757448568e-01  1.2365672459685338e-01  5.2851560896699470e-02  -1.0010978803562923e-03  -2.1862543680076049e-02  1.8886587806491939e-04  5.1634421095644471e-02  1.1032202484532748e-01  1.6687030113108844e-01  2.1804999214360349e-01  2.5673508283897267e-01  2.9012976307368243e-01  3.1418500079353878e-01  3.2962351891679165e-01  3.2774418129754651e-01  3.0862714869877983e-01  2.6959170081990175e-01  2.1713981046106115e-01  1.6271734646008229e-01  1.2509533942981729e-01  1.0420422462259055e-01  1.0422559454179449e-01  1.1422340829685657e-01  1.3031814413755119e-01  1.5351868603059618e-01  1.8409932578366583e-01  2.2753068268025203e-01  2.7915140336698108e-01  3.3394185388774372e-01  3.7834688118717197e-01  4.0245859200303635e-01  4.0711982475121300e-01  3.9051010285832360e-01  3.5351433740245386e-01  3.0582367953172929e-01  2.4750169881462708e-01  1.9336335013690123e-01  1.3868160033866411e-01  9.6216065584795576e-02  6.2937112996752170e-02  4.2794510535471418e-02  3.6209377480989804e-02  4.1479756737470466e-02  6.1129965860343957e-02  9.2029282893011530e-02  1.3228293658742873e-01  1.8080575798292817e-01  2.3043952632976938e-01  2.7803737017040475e-01  3.1994326319616312e-01  3.5444205079190322e-01  3.7832869741885333e-01  3.9655193686898027e-01  4.0678531601635526e-01  4.1395988537853401e-01  4.1585225149515309e-01  -1.2367830289035810e+00  -1.2226648114507639e+00  -1.2078505593091884e+00  -1.1924183203407899e+00  -1.1763927439913984e+00  -1.1598153006905652e+00  -1.1430062610606240e+00  -1.1259501786687738e+00  -1.1088654556116546e+00  -1.0917661676803876e+00  -1.0747352625634985e+00  -1.0576799083738757e+00  -1.0411421002930614e+00  -1.0245876947077346e+00  -1.0082851112543505e+00  -9.9245715036699000e-01  -9.7698711540723937e-01  -9.6203729527736781e-01  -9.4745819538901421e-01  -9.3342787022359708e-01  -9.1993438211567979e-01  -9.0703901103641693e-01  -8.9452695264033966e-01  -8.8249666456168008e-01  -8.7109054249105677e-01  -8.6018705147779861e-01  -8.4988929987430106e-01  -8.4010884732948388e-01  -8.3092132010709008e-01  -8.2223198969791300e-01  -8.1420292479405021e-01  -8.0669223776778032e-01  -7.9967156144752161e-01  -7.9326227164380214e-01  -7.8741927804939749e-01  -7.8206998235544067e-01  -7.7726137688954999e-01  -7.7293128879038586e-01  -7.6901949810725323e-01  -7.6553307479352128e-01  -7.6240412437315974e-01  -7.5959842073012707e-01  -7.5705490256372232e-01  -7.5470230607531963e-01  -7.5248013991122664e-01  -7.5039431976605286e-01  -7.4825390549740900e-01  -7.4604413145587334e-01  -7.4386213569923754e-01  -7.4141199904401367e-01  -7.3884508934902393e-01  -7.3592527310655842e-01  -7.3273254048236158e-01  -7.2916873666179394e-01  -7.2521122914771996e-01  -7.2079612535290771e-01  -7.1593814624400165e-01  -7.1048185908310812e-01  -7.0450772099138648e-01  -6.9797468901604476e-01  -6.9090830683934013e-01  -6.8321381331498410e-01  -6.7498315492016148e-01  -6.6613719849066932e-01  -6.5677655018392789e-01  -6.4681770367812075e-01  -6.3639289098282648e-01  -6.2543900834483601e-01  -6.1403115340947589e-01  -6.0226625528105104e-01  -5.9015690138205767e-01  -5.7769607637899201e-01  -5.6505944438130074e-01  -5.5217468633326972e-01  -5.3921958542709847e-01  -5.2618306429300088e-01  -5.1314741730116464e-01  -5.0011464545645457e-01  -4.7453239797272839e-01  -4.6194341625881680e-01  -4.4967788363466094e-01  -4.3772012533567162e-01  -4.2606766928876127e-01  -4.1466139885844355e-01  -4.0368035748554665e-01  -3.9307498363349425e-01  -3.8287831374845177e-01  -3.7304221198137560e-01  -3.6364641391599251e-01  -3.5462356253267108e-01  -3.4596715909977177e-01  -3.3776301507446482e-01  -3.2990200644307599e-01  -3.2243519143895749e-01  -3.1530787950001854e-01  -3.0857279898192469e-01  -3.0217115303688991e-01  -2.9610178613637922e-01  -2.9042995911289027e-01  -2.8513242618381973e-01  -2.8009791789890931e-01  -2.7550155019288669e-01  -2.7122403061312600e-01  -2.6735593188540463e-01  -2.6387649919333694e-01  -2.6081123379592475e-01  -2.5814771565838301e-01  -2.5586825457284168e-01  -2.5412353717300745e-01  -2.5275857128156826e-01  -2.5191100812447909e-01  -2.5152090715938180e-01  -2.5160355009086155e-01  -2.5216135580672366e-01  -2.5319916365713863e-01  -2.5468038348846117e-01  -2.5661803938171801e-01  -2.5895968605894842e-01  -2.6173153442739461e-01  -2.6486599709528857e-01  -2.6840145025861351e-01  -2.7225551992407293e-01  -2.7645493757522593e-01  -2.8097743356012700e-01  -2.8583921786307709e-01  -2.9097832487313224e-01  -2.9647063072201812e-01  -3.0226882209966560e-01  -3.0838188644637704e-01  -3.1491048833288482e-01  -3.2177042287950708e-01  -3.2902400300375489e-01  -3.3673733458200228e-01  -3.4482703745252741e-01  -3.5346229088651976e-01  -3.6249490338449736e-01  -3.7200117879103034e-01  -3.8216537275547335e-01  -3.9266403663474986e-01  -4.0365235086369172e-01  -4.1518047540801878e-01  -4.2724304589920498e-01  -4.3968946984766127e-01  -4.5263626509160204e-01  -4.6596409928656946e-01  -4.7974945420739357e-01  -4.9372599706700310e-01  -5.0792239151819829e-01  -5.2245058172123804e-01  -5.3701708758906941e-01  -5.5181663098484079e-01  -5.6668944253083098e-01  -5.8126974325596714e-01  -5.9561048307589715e-01  -6.0978920360575462e-01  -6.2371048013259167e-01  -6.4978434280425990e-01  -6.6183454705921319e-01  -6.7312595254082497e-01  -6.8335974049781001e-01  -6.9250164303693729e-01  -7.0041302884576728e-01  -7.0710334832508137e-01  -7.1241829518259292e-01  -7.1608448020925652e-01  -7.1812556798616967e-01  -7.1829895933037524e-01  -7.1688850922135550e-01  -7.1333363492758839e-01  -7.0798949376878517e-01  -7.0038760649848852e-01  -6.9040621857234252e-01  -6.7835891503840207e-01  -6.6399792458963247e-01  -6.4741529418173693e-01  -6.2823091171563805e-01  -6.0682207782696673e-01  -5.8279111535301398e-01  -5.5632186544991591e-01  -5.2759328237040537e-01  -4.9634193688202344e-01  -4.6289349872649133e-01  -4.2658901384529213e-01  -3.8812832344929327e-01  -3.4751934576418964e-01  -3.0452331427567847e-01  -2.5949749214292872e-01  -2.1217440986941583e-01  -1.6300203971914767e-01  -1.1160282182344437e-01  -5.8700844422707094e-02  -3.7163895546671322e-03  5.2654982431643869e-02  1.1082836966694219e-01  1.7006897391623882e-01  2.3077964389429284e-01  2.9284491172145788e-01  3.5561047317490629e-01  4.1900773908945593e-01  4.8360361746795549e-01  5.4868753647274759e-01  6.1392605921859866e-01  6.7968013003602490e-01  7.4540636593154086e-01  8.1088063544884303e-01  8.7646303459041430e-01  9.4138288392064806e-01  1.0060266104152293e+00  1.0696928635777274e+00  1.1327070379481250e+00  1.1943251839114994e+00  1.2550712076238066e+00  1.3144272828876193e+00  1.3720814348765431e+00  1.4279662688324462e+00  1.4822463848104268e+00  1.5345045743479522e+00  1.5842826805492947e+00  1.6322081749838500e+00  1.6774674659017459e+00  1.7203699382467166e+00  1.7604356951322007e+00  1.7978724796757324e+00  1.8326405916450026e+00  1.8639039415085090e+00  1.8919575078611621e+00  1.9177897664104333e+00  1.9394211131024814e+00  1.9580205263455461e+00  1.9733891262281054e+00  1.9848129160040149e+00  1.9936183277621078e+00  1.9981732778478283e+00  1.9993588662089063e+00  1.9911165375617146e+00  1.9816764949311492e+00  1.9687300647351440e+00  1.9522864470051633e+00  1.9323249716374433e+00  1.9083907915599581e+00  1.8813848150465695e+00  1.8514312405141973e+00  1.8179610425441859e+00  1.7810931808335917e+00  1.7412292097206088e+00  1.6981993136393936e+00  1.6524989810360637e+00  1.6037192294197742e+00  1.5524427767965576e+00  1.4983090411678452e+00  1.4419684988745289e+00  1.3830478042498024e+00  1.3222510180521769e+00  1.2591884009719461e+00  1.1944869167022925e+00  1.1277050765896361e+00  1.0595775571135342e+00  9.8981162868603367e-01  9.1906685424136847e-01  8.4695623029777767e-01  7.7405604049327648e-01  7.0022443074708407e-01  6.2609502173628784e-01  5.5132357343316973e-01  4.7613590128472938e-01  4.0119019869371325e-01  3.2612317955465814e-01  2.5128145540996316e-01  1.7675106379331862e-01  1.0276948487650564e-01  2.9470098289409975e-02  -4.3060117893421249e-02  -1.1426142508992605e-01  -1.8461677890446110e-01  -2.5342281521002669e-01  -3.2126576508038379e-01  -3.8741802489629490e-01  -4.5142645257721797e-01  -5.1418093312432922e-01  -5.7477960344553425e-01  -6.3358368892311712e-01  -6.9047408872005778e-01  -7.4470246916666161e-01  -7.9675721382877707e-01  -8.4652830142100899e-01  -8.9417689111719934e-01  -9.3902000376717720e-01  -9.8166281853480952e-01  -1.0213535389141446e+00  -1.0586900381842426e+00  -1.0931977996500697e+00  -1.1253017658911992e+00  -1.1545826905606209e+00  -1.1814296299849323e+00  -1.2053542853535397e+00  -1.2266888735178405e+00  -1.2454222667704651e+00  -1.2617573068262919e+00  -1.2755064668177509e+00  -1.2867381790218793e+00  -1.2956652698977580e+00  -1.3025389080441503e+00  -1.3070637178333291e+00  -1.3089530153015441e+00  -1.3093525146131686e+00  -1.3076270946277879e+00  -1.3040716167889761e+00  -1.2987152888764493e+00  -1.2917609593322850e+00  -1.2832844452790959e+00  -1.2734358079499830e+00  -1.2623782965691785e+00  -2.7813755000555956e-01  -1.0759168434599987e-01  -3.3869774395155544e-01  7.5828479882954034e-02  -2.0700394702540251e-01  4.8469330109339050e-02  4.6069421047590514e-01  9.3370899232099880e-01  9.9098746635415291e-01  5.8849442810487207e-01  3.1786674132126741e-01  -1.0526794768397991e+00  -7.9205016998695055e-01  -4.5251470214570599e-01  -3.6928137498977626e-01  -9.5238496942010670e-02  -1.6301484173792127e-03  -3.1730476742745534e-01  2.5711901241144475e-01  8.5646122400636715e-01  1.3768734162072505e+00  1.3400633965375666e+00  7.4776725047526826e-01  2.8090827215135239e-01  -7.1467805319266819e-01  -7.8051205462075557e-01  -2.4780259763487530e-01  -4.4166909158515573e-02  -2.8800201180792634e-01  1.6709633088213460e-01  -2.1908014989600100e-01  -2.3835151220738882e-01  -7.3632107270309255e-01  -7.6959667808487542e-01  -7.8454472150396037e-01  -4.3060684939868787e-01  1.1151402184417336e+00  5.2249085904988746e-01  3.8234040814216927e-02  7.5311622771972375e-01  1.3906308665387341e+00  1.7213455160904410e+00  1.6767552909563506e+00  -2.6290620576040086e-01  -8.8395785383033901e-02  -7.7398174885996138e-02  -2.9821325699085005e-01  -8.3910648345070493e-01  -2.7159858314859935e-03  -1.7075779358107505e-02  -5.8310738521200989e-01  -7.0246720845810151e-01  -2.1811674300930801e-02  1.4086666689755512e+00  -6.9114308204911767e-02  -7.2731568069342512e-01  -7.3915751720824563e-01  -7.8023492141629980e-01  -2.5579492096879264e-01  -2.6226446067281961e-01  -3.3181129632842765e-01  -7.1204312118898452e-02  -8.1205297230236262e-01  -4.1739288764734944e-01  9.9307170594206062e-01  4.8155199571318785e-01  7.6151346172660658e-02  -8.6162182384387564e-01  -9.6763441575085773e-01  -1.0554045688293809e+00  -8.7876990985518474e-02  -4.6502318068338711e-01  -2.9065221728502799e-01  -2.5174528932757040e-01  1.8660627302742272e+00  1.8498999769505104e+00  1.5805063475546408e+00  1.1303254798098386e+00  -4.1557836144456856e-01  3.2726805429012251e-01  -5.7953893135618958e-03  -3.4101835037783718e-01  -4.7754949362204513e-01  -3.4882326553752252e-01  -4.2231372391061833e-01  2.2944930421191334e-01  1.7834818702780739e+00  4.1631889775515775e-02  -5.4766338881759813e-01  -1.1472774590091626e+00  -6.2365881199647377e-01  2.7705395123711996e-01  -9.7387259310642391e-02  -3.2430076832579639e-02  -3.3857013185263807e-01  2.3536690155548587e-01  -2.9635061327628170e-01  -7.0727546956385179e-01  -2.5827951156808515e-01  -3.9403580719903236e-01  -5.4167299138664848e-01  1.5873279714200215e+00  4.3249886325967452e-01  1.2962953677685076e+00  2.3334336118445406e-01  -3.0230743741568694e-01  -8.3956351949725977e-02  -2.6905681242903406e-01  -3.3802769252389847e-01  -2.7389779466888559e-01  6.6471986725621224e-01  -7.7003977370998333e-01  -2.4644781025266399e-01  2.0216740156455953e-01  -1.1835319359480949e+00  -9.1340594326921865e-01  -7.8132091505538659e-01  -7.3728852124188005e-01  -1.2651836032098285e-01  1.5837935099024120e-01  -8.3361067928637533e-01  2.8550775581169946e-01  5.9082470129640546e-02  1.1113393801391064e-01  -1.4005707934504508e-01  8.6808893606110868e-02  6.9000648308347456e-01  1.5195501510871831e-01  2.3907987923721633e-01  1.3431228301163931e+00  -1.0431876877757257e-01  -5.6062862853931017e-01  -6.6832347161325178e-01  1.1679841613400874e+00  -9.3804461414366136e-01  2.1995556381167164e-01  1.6031038027592387e-01  6.5168419463938199e-01  -7.2580656003844213e-01  1.0008454086479048e+00  1.0215690858641795e+00  -4.8069827828026562e-01  -7.5599404378993007e-01  7.4615579160896506e-01  -1.1458057178447960e+00  -1.0825745882120172e+00  -1.2950642703160289e-01  -5.6108374635186076e-01  -2.5421350514089619e-01  -1.8553656698169410e-01  -3.8780511891027764e-01  1.0435191092296192e+00  -2.9725292376852203e-01  -3.2663872696284096e-01  8.3906474094548683e-02  1.3019165095757551e-01  1.7593935695373280e+00  4.7283540130177465e-01  1.9434629367530092e+00  1.9257313763003623e+00  1.5319483923546644e+00  2.5154217005691783e-02  1.5268924185939811e-01  3.5305611539486824e-02  -3.6721695257037781e-03  -7.7232739988838853e-02  -5.6414090129059968e-01  2.8849927197192315e-01  -6.5244432276454045e-01  -7.1354736299991936e-02  1.5786236344781787e-01  -5.1700105773487026e-01  -6.3106320270371563e-01  1.6821849017815388e-01  -1.1832945660880962e+00  -2.5752456545405528e-01  -8.0018129994270271e-01  -4.8729701231577482e-01  -5.8703396201960267e-01  6.0736871026347750e-01  1.5291292047656882e-01  -5.5131690806971938e-02  -1.5685493402439693e-01  -6.5939310860875600e-01  4.6448554579506285e-01  -8.8506615983828296e-01  1.7953669336661404e-01  3.4833801385795685e-02  6.8544695462899385e-01  -1.0040059972751110e+00  3.3970393273849389e-02  -6.4481577728677852e-01  -1.0809240076105521e-01  3.7001990790951306e-01  4.4056168319852607e-01  3.3959377620105252e-01  -2.5528672068485009e-01  1.8998087526540604e+00  -5.7011890773070717e-01  1.8691319617079154e+00  1.7513667711127996e+00  1.5567328985718127e+00  3.8511901006299060e-01  -4.3943716760006357e-01  -1.9158320897154087e-02  -6.2974487152048497e-01  9.1086019145905639e-01  -3.5824636177877359e-02  -4.0936706399927658e-01  -9.3606051576714322e-01  2.5262486593637157e-02  -1.9296405332756436e-01  -6.4998167869341450e-01  1.1542283438274326e+00  -7.3990016553969806e-01  -3.6311912888344045e-01  -6.3264163786389127e-01  1.9212594281366235e-01  3.8160732868261821e-01  -1.8744338061604460e-02  4.4500015427916062e-01  5.9928142901500792e-01  -2.8586975134812898e-01  -3.0890814651898751e-01  8.0127098541310671e-01  -5.3572169450748974e-01  -8.1838145092073200e-01  -4.5682159881322260e-01  2.7443627275453200e-02  5.1149696205464790e-01  -6.9669510255956402e-01  6.9831069112372812e-03  -1.2454188492574674e+00  1.4097050842504091e+00  -1.2196611435729122e-01  1.4389981324614036e+00  3.8021083725652904e-01  -9.7367087074495884e-01  -3.6365321429057545e-01  -7.8373170461398367e-01  -2.6759954666898272e-01  -1.1509426169174763e+00  3.4477913919282588e-01  1.3355862724871922e-02  1.0401081642296554e-01  -5.4521818811484976e-02  -4.0685325053095495e-01  1.2500863606751253e-01  5.5306276692682566e-01  -3.3511781364757115e-01  -7.4391792147804225e-01  6.8038426276560825e-03  3.6996656163600855e-01  9.9520422141056525e-02  3.3547625606277309e-01  -7.5127845772289092e-01  -7.7116059262595082e-01  -7.3936326139872677e-01  -2.6282341629820799e-01  -7.1774565809082147e-01  1.6767860630421896e+00  -7.9924447801374909e-01  -3.0142674161841537e-01  -2.2062074393342906e-01  2.3699466619047421e-01  -2.4921874958859731e-02  8.0332707823519711e-01  1.0803447160715609e+00  7.3977594177442346e-02  3.5557490763656496e-01  3.1064204521243549e-01  3.3676319576216314e-02  -1.1435441838247922e+00  -1.2421629494301858e+00  -7.7428092563780204e-01  1.2219547645500306e-01  2.2841085589119950e-01  -1.0096656149087467e-01  8.2973110939891226e-01  1.2193781802767518e+00  -1.0390011931474998e-01  1.716312