<?xml version="1.0"?>
<VTKFile type="UnstructuredGrid"  version="0.1"  >
<UnstructuredGrid>
<Piece  NumberOfPoints="5712" NumberOfCells="10893">
<Points>
<DataArray  type="Float64"  NumberOfComponents="3"  format="ascii">0 0 0  0 0.41 0  2.2 0 0  2.2 0.41 0  0.2 0.25 0  0.25 0.2 0  0.2 0.15 0  0.15 0.2 0  0 0.3904761904762147 0  0 0.3709523809524729 0  0 0.3514285714286954 0  0 0.3319047619049458 0  0 0.3123809523811823 0  0 0.2928571428574404 0  0 0.2733333333336768 0  0 0.2538095238099349 0  0 0.2342857142861567 0  0 0.2147619047624078 0  0 0.1952380952385999 0  0 0.1757142857147328 0  0 0.1561904761908952 0  0 0.1366666666670465 0  0 0.1171428571431906 0  0 0.09761904761931661 0  0 0.0780952380954425 0  0 0.05857142857161174 0  0 0.03904761904773757 0  0 0.01952380952386334 0  0.01986745845578998 0 0  0.03982462845278956 0 0  0.05987191195217309 0 0  0.0800097046343772 0 0  0.1002384394563812 0 0  0.1205585077310739 0 0  0.1409703274044529 0 0  0.1614743126654433 0 0  0.1820708739963059 0 0  0.2027604497544275 0 0  0.2235434355718665 0 0  0.2444202633435119 0 0  0.265391361068545 0 0  0.2864571529028895 0 0  0.3076180592107884 0 0  0.3288745151942862 0 0  0.3502269459367295 0 0  0.3716757933139423 0 0  0.3932214934733583 0 0  0.4148644812710909 0 0  0.4366051859408088 0 0  0.4584440653716539 0 0  0.48038154995608 0 0  0.5024180900849111 0 0  0.5245541321026944 0 0  0.5467901197490906 0 0  0.5691265226973262 0 0  0.5915637755827025 0 0  0.614102339850345 0 0  0.636742674167927 0 0  0.6594852330945143 0 0  0.6823304884387933 0 0  0.7052788907288091 0 0  0.7283309147437839 0 0  0.751487030986726 0 0  0.7747477057419434 0 0  0.7981134011315298 0 0  0.821584610595033 0 0  0.8451617959659341 0 0  0.8688454391891771 0 0  0.8926360178861791 0 0  0.9165340281873645 0 0  0.9405399372917173 0 0  0.9646542424736072 0 0  0.9888774365267383 0 0  1.013210007824441 0 0  1.037652440378865 0 0  1.06220524733373 0 0  1.086868914509785 0 0  1.111643945154348 0 0  1.136530838720734 0 0  1.161530116277625 0 0  1.186642266933783 0 0  1.211867807739771 0 0  1.237207251805963 0 0  1.26266110764717 0 0  1.288229902058941 0 0  1.313914143782356 0 0  1.339714360040014 0 0  1.36563107331828 0 0  1.391664802767304 0 0  1.417816093074858 0 0  1.444085461454821 0 0  1.470473442759746 0 0  1.496980573539167 0 0  1.523607398041112 0 0  1.550354449227912 0 0  1.577222271446548 0 0  1.60421140927435 0 0  1.631322413213628 0 0  1.658555830029694 0 0  1.685912218634225 0 0  1.713392126884173 0 0  1.740996123438425 0 0  1.768724751279777 0 0  1.796578588883932 0 0  1.824558192783585 0 0  1.852664140769835 0 0  1.880896988683294 0 0  1.909257322654582 0 0  1.93774570990443 0 0  1.966362727809846 0 0  1.995108970713317 0 0  2.023985006033532 0 0  2.052991427225145 0 0  2.082128822851723 0 0  2.111397799134646 0 0  2.140798904430552 0 0  2.170332790993664 0 0  2.2 0.02928571428565775 0  2.2 0.05857142857131794 0  2.2 0.08785714285694929 0  2.2 0.1171428571425731 0  2.2 0.1464285714282011 0  2.2 0.1757142857138497 0  2.2 0.2049999999994743 0  2.2 0.2342857142852724 0  2.2 0.2635714285710462 0  2.2 0.2928571428568132 0  2.2 0.3221428571426234 0  2.2 0.3514285714283903 0  2.2 0.3807142857142005 0  2.170332790993718 0.41 0  2.140798904430656 0.41 0  2.111397799134855 0.41 0  2.082128822859404 0.41 0  2.052991427232898 0.41 0  2.023985006041361 0.41 0  1.99510897072121 0.41 0  1.966362727817755 0.41 0  1.937745709912357 0.41 0  1.90925732266254 0.41 0  1.880896988691295 0.41 0  1.852664140777879 0.41 0  1.824558192791673 0.41 0  1.79657858889206 0.41 0  1.768724751287952 0.41 0  1.740996123446639 0.41 0  1.713392126892427 0.41 0  1.685912218642533 0.41 0  1.658555830038071 0.41 0  1.631322413222075 0.41 0  1.604211409282859 0.41 0  1.577222271455122 0.41 0  1.55035444923655 0.41 0  1.523607398049813 0.41 0  1.496980573547932 0.41 0  1.470473442768574 0.41 0  1.444085461463712 0.41 0  1.417816093083807 0.41 0  1.391664802776313 0.41 0  1.365631073327341 0.41 0  1.339714360049107 0.41 0  1.31391414379148 0.41 0  1.288229902068097 0.41 0  1.262661107656355 0.41 0  1.237207251815179 0.41 0  1.211867807749015 0.41 0  1.186642266943055 0.41 0  1.161530116286924 0.41 0  1.13653083873006 0.41 0  1.111643945163706 0.41 0  1.086868914519036 0.41 0  1.062205247342763 0.41 0  1.037652440387677 0.41 0  1.013210007833036 0.41 0  0.9888774365351134 0.41 0  0.9646542424817568 0.41 0  0.9405399372996428 0.41 0  0.916534028195068 0.41 0  0.8926360178936621 0.41 0  0.8688454391964415 0.41 0  0.8451617959729809 0.41 0  0.8215846106018625 0.41 0  0.7981134011381465 0.41 0  0.7747477057483507 0.41 0  0.7514870309929218 0.41 0  0.7283309147497725 0.41 0  0.7052788907345926 0.41 0  0.6823304884443711 0.41 0  0.6594852330998913 0.41 0  0.6367426741731019 0.41 0  0.6141023398553211 0.41 0  0.5915637755874821 0.41 0  0.5691265227019089 0.41 0  0.5467901197534788 0.41 0  0.5245541321068876 0.41 0  0.5024180900889137 0.41 0  0.4803815499598949 0.41 0  0.458444065375283 0.41 0  0.4366051859442526 0.41 0  0.4148644812743503 0.41 0  0.3932214934764355 0.41 0  0.3716757933168389 0.41 0  0.3502269459394474 0.41 0  0.3288745151968251 0.41 0  0.3076180592131517 0.41 0  0.2864571529050777 0.41 0  0.2653913610705745 0.41 0  0.2444202633453989 0.41 0  0.2235434355736121 0.41 0  0.202760449756034 0.41 0  0.1820708739977555 0.41 0  0.1614743126667344 0.41 0  0.140970327405586 0.41 0  0.120558507732039 0.41 0  0.1002384394571796 0.41 0  0.08000970463500767 0.41 0  0.05987191195264252 0.41 0  0.03982462845310097 0.41 0  0.01986745845594617 0.41 0  0.2009941093832422 0.2499901164885035 0  0.2019878257548352 0.2499604698613656 0  0.2029807562584742 0.2499110718390977 0  0.2039725083485626 0.2498419419507366 0  0.2049626899453778 0.2497531075261239 0  0.2059509095900689 0.2496446036851018 0  0.2069367765994233 0.2495164733236293 0  0.2079199012203332 0.2493687670968211 0  0.208899894783849 0.2492015433989262 0  0.209876369858873 0.2490148683402368 0  0.2108489404052936 0.2488088157209575 0  0.2118172219266183 0.248583467002027 0  0.2127808316219855 0.248338911272912 0  0.2137393885375067 0.2480752452163837 0  0.2146925137168532 0.2477925730703012 0  0.2156398303510693 0.247491006586403 0  0.2165809639275547 0.2471706649861239 0  0.2175155423781385 0.2468316749134561 0  0.2184431962261471 0.2464741703848905 0  0.2193635587324768 0.2460982927364335 0  0.2202762660405913 0.2457041905677276 0  0.2211809573203641 0.2452920196833053 0  0.2220772749107273 0.2448619430309942 0  0.2229648644610677 0.2444141306374986 0  0.2238433750713457 0.2439487595411649 0  0.2247124594307593 0.2434660137220228 0  0.2255717739550953 0.2429660840290282 0  0.2264209789225549 0.2424491681046155 0  0.227259738608055 0.2419154703065648 0  0.2280877214159585 0.2413652016272072 0  0.2289046000111568 0.2407985796100187 0  0.2297100514485014 0.2402158282636004 0  0.2305037573004443 0.2396171779731418 0  0.2312854037829426 0.2390028654093291 0  0.2320546818795267 0.2383731334347658 0  0.2328112874634348 0.2377282310079845 0  0.2335549214178666 0.2370684130850081 0  0.2342852897542382 0.2363939405185524 0  0.23500210372839 0.2357050799549172 0  0.2357050799547543 0.2350021037285561 0  0.236393940518396 0.2342852897544042 0  0.2370684130848552 0.2335549214180355 0  0.2377282310078377 0.2328112874636036 0  0.2383731334346237 0.2320546818796969 0  0.2390028654091947 0.2312854037831102 0  0.2396171779730177 0.2305037573006055 0  0.2402158282634863 0.2297100514486559 0  0.2407985796099098 0.2289046000113105 0  0.2413652016271038 0.2280877214161108 0  0.2419154703064672 0.2272597386082051 0  0.2424491681045289 0.2264209789226942 0  0.2429660840289533 0.2255717739552211 0  0.2434660137219522 0.2247124594308835 0  0.2439487595410967 0.2238433750714713 0  0.2444141306374335 0.2229648644611936 0  0.2448619430309386 0.2220772749108404 0  0.2452920196832561 0.2211809573204692 0  0.2457041905676833 0.2202762660406911 0  0.2460982927363924 0.2193635587325747 0  0.246474170384854 0.2184431962262392 0  0.2468316749134214 0.2175155423782314 0  0.2471706649860917 0.216580963927646 0  0.2474910065863757 0.215639830351152 0  0.2477925730702761 0.2146925137169349 0  0.2480752452163603 0.2137393885375889 0  0.2483389112728914 0.2127808316220633 0  0.248583467002012 0.2118172219266803 0  0.2488088157209458 0.2108489404053462 0  0.2490148683402261 0.2098763698589259 0  0.249201543398917 0.2088998947838999 0  0.2493687670968142 0.2079199012203759 0  0.2495164733236233 0.2069367765994661 0  0.2496446036850975 0.205950909590105 0  0.2497531075261207 0.2049626899454101 0  0.2498419419507343 0.2039725083485922 0  0.2499110718390968 0.2029807562584889 0  0.2499604698613655 0.2019878257548365 0  0.2499901164885035 0.2009941093832422 0  0.2499901164885035 0.1990058906167579 0  0.2499604698613656 0.1980121742451648 0  0.2499110718390977 0.1970192437415259 0  0.2498419419507366 0.1960274916514374 0  0.2497531075261239 0.1950373100546222 0  0.2496446036851018 0.1940490904099311 0  0.2495164733236293 0.1930632234005767 0  0.2493687670968211 0.1920800987796668 0  0.2492015433989262 0.191100105216151 0  0.2490148683402368 0.190123630141127 0  0.2488088157209575 0.1891510595947065 0  0.248583467002027 0.1881827780733817 0  0.248338911272912 0.1872191683780146 0  0.2480752452163837 0.1862606114624933 0  0.2477925730703012 0.1853074862831468 0  0.247491006586403 0.1843601696489307 0  0.2471706649861239 0.1834190360724454 0  0.2468316749134561 0.1824844576218615 0  0.2464741703848905 0.181556803773853 0  0.2460982927364335 0.1806364412675232 0  0.2457041905677276 0.1797237339594087 0  0.2452920196833053 0.1788190426796359 0  0.2448619430309942 0.1779227250892727 0  0.2444141306374986 0.1770351355389324 0  0.2439487595411649 0.1761566249286543 0  0.2434660137220228 0.1752875405692407 0  0.2429660840290282 0.1744282260449047 0  0.2424491681046155 0.1735790210774451 0  0.2419154703065648 0.172740261391945 0  0.2413652016272072 0.1719122785840415 0  0.2407985796100187 0.171095
[...]
<PointData  Scalars="f_19"> 
<DataArray  type="Float64"  Name="f_19"  format="ascii">3.7291864130641422e-01  3.7747257982661758e-01  0.0000000000000000e+00  0.0000000000000000e+00  -8.5874138228288510e-01  -4.6265294287674447e-01  -9.7751063530804960e-01  1.8651560250704338e+00  3.7753416385469535e-01  3.8205750872102040e-01  3.9589911784962289e-01  4.2193633448949358e-01  4.6185448115023692e-01  5.1316396747646975e-01  5.7181824666459502e-01  6.2998184500136911e-01  6.7867042848526538e-01  7.0759754053635715e-01  7.1031674962122804e-01  6.8697741072712626e-01  6.4146554347517326e-01  5.8261695823127713e-01  5.2161712140135796e-01  4.6653264378659892e-01  4.2335163668260317e-01  3.9430450586078375e-01  3.7830476456329748e-01  3.7302022249072769e-01  3.7185406263166393e-01  3.6882662015759704e-01  3.6249648830666098e-01  3.5144659379651405e-01  3.3388833975452664e-01  3.0789030035692838e-01  2.7193809416196535e-01  2.2567353783899799e-01  1.7027884795722584e-01  1.0843283591787263e-01  4.4695929625914961e-02  -1.5815428356842496e-02  -7.0661195804524540e-02  -1.1452065564248151e-01  -1.4785827279064037e-01  -1.6760869476077145e-01  -1.7458589405357072e-01  -1.7405255318451851e-01  -1.5883262128710340e-01  -1.3673088737309089e-01  -1.1114332691595560e-01  -8.5016637904201733e-02  -5.7160202191424911e-02  -3.7183951262318250e-02  -2.3767548083861025e-02  -1.9872904224256284e-02  -2.6807635705840861e-02  -4.4093919127342063e-02  -7.1496498143799450e-02  -1.0660576059518918e-01  -1.3999449537409969e-01  -1.6769024310382383e-01  -1.7790451848896779e-01  -1.7059053452659434e-01  -1.4640796578663035e-01  -1.1247020292427817e-01  -7.4253403358574582e-02  -3.6210931152332745e-02  -5.7296989540873474e-03  1.6647594104875582e-02  2.9888662723866210e-02  3.2921449968657077e-02  2.7583018277174489e-02  1.2893266677551564e-02  -7.9419649913101669e-03  -3.3310275538031189e-02  -5.8597445545679687e-02  -8.1817367969293245e-02  -9.9682912252811187e-02  -1.0285734196617960e-01  -9.8056585277631239e-02  -8.2133073414461591e-02  -5.9867311115127490e-02  -3.5140251998095326e-02  -1.2458139470875217e-02  6.9715392539117897e-03  2.0511508243922207e-02  2.8595605306686533e-02  3.3164473808850313e-02  3.5997725646068575e-02  3.8704254227158924e-02  4.1890457610641516e-02  4.5248414932826858e-02  4.9553568144476583e-02  5.3034221086447758e-02  5.5501194960512965e-02  5.7881417776733494e-02  5.9193648096835479e-02  5.9608507518809445e-02  5.9169289299758586e-02  5.7301265211099746e-02  5.4743877957148725e-02  5.1301188888567273e-02  4.7648364246320157e-02  4.4086523691323598e-02  4.0711651201631602e-02  3.7791148280832292e-02  3.4733125043222263e-02  3.1978990256663078e-02  2.9268364954530807e-02  2.6615499547620547e-02  2.3754352293622438e-02  2.1030555964470555e-02  1.7985161040306778e-02  1.5248915099945344e-02  1.2148739995784533e-02  9.0928329795420728e-03  6.1896307527009274e-03  2.9696627715793500e-03  0.0000000000000000e+00  0.0000000000000000e+00  0.0000000000000000e+00  0.0000000000000000e+00  0.0000000000000000e+00  0.0000000000000000e+00  0.0000000000000000e+00  0.0000000000000000e+00  0.0000000000000000e+00  0.0000000000000000e+00  0.0000000000000000e+00  0.0000000000000000e+00  0.0000000000000000e+00  2.9012221752111665e-03  5.9912234754376324e-03  9.0348821219834244e-03  1.1833397026146714e-02  1.4754233151496866e-02  1.7707884253414352e-02  2.0589009933690949e-02  2.3682572505614622e-02  2.6659447884918166e-02  3.0132016376640130e-02  3.3282384341554526e-02  3.6776816592661604e-02  3.9875400512230368e-02  4.2877185289214512e-02  4.5640187223197161e-02  4.8412862890097753e-02  5.1168594728797472e-02  5.4112825501360907e-02  5.7182090863346725e-02  6.0787756973676207e-02  6.4596532500692069e-02  6.8288265729088485e-02  7.1343651828195812e-02  7.1575508755270037e-02  7.0163265591167631e-02  6.2738955405384336e-02  5.1427350070503378e-02  3.8001582880699908e-02  2.2085678264719889e-02  6.3121967720484867e-03  -8.3355004880104593e-03  -2.0513244749010479e-02  -2.9424299261142848e-02  -3.5581445119970551e-02  -3.8975760685041369e-02  -3.9527184491352389e-02  -3.6988292902540673e-02  -3.2990114982319664e-02  -2.8257757616414272e-02  -2.5710027788208179e-02  -2.5213635548721129e-02  -3.3397333913684095e-02  -4.6562346832112640e-02  -6.5101014155866804e-02  -8.7684230881135514e-02  -1.0938759093909665e-01  -1.2575652064224752e-01  -1.3080058500782415e-01  -1.2185040252226903e-01  -9.6358802354502837e-02  -5.7954104086195501e-02  -1.2858410187455000e-02  3.4026995470058649e-02  7.3508715499189234e-02  1.0137439769001817e-01  1.1225210143296803e-01  1.0780843725687743e-01  8.6131131479377482e-02  5.3766857102245151e-02  1.0870780761477936e-02  -3.6119283564480180e-02  -8.5443034938751133e-02  -1.2964421887772157e-01  -1.6545321920861647e-01  -1.9368131094082305e-01  -2.1019047555729126e-01  -2.2040534731895006e-01  -2.2391598132257354e-01  -2.2167929530876626e-01  -2.1443850042892659e-01  -2.0161479384703881e-01  -1.8297094740785549e-01  -1.5992321343631152e-01  -1.2916459086829843e-01  -9.0493865513713301e-02  -4.8060139748054502e-02  2.2556125609479285e-03  5.6859208106938126e-02  1.1094621434389446e-01  1.6722837784767219e-01  2.1818389435464017e-01  2.6282134796139811e-01  2.9920509076818785e-01  3.2751546835718420e-01  3.4644697660614510e-01  3.6054494675463239e-01  3.6845438160981220e-01  3.7435843036456934e-01  3.7616683513676963e-01  -8.4420809013594056e-01  -8.2928542107437631e-01  -8.1411486344323747e-01  -7.9873388690917735e-01  -7.8319282622448949e-01  -7.6749438208572296e-01  -7.5193662641655390e-01  -7.3647261229071925e-01  -7.2129947174490361e-01  -7.0639783553467250e-01  -6.9183568584795085e-01  -6.7751016972235745e-01  -6.6385432104582309e-01  -6.5043123899616617e-01  -6.3742300562261478e-01  -6.2500191061921628e-01  -6.1304474973997514e-01  -6.0167326773937235e-01  -5.9075130899785655e-01  -5.8039116874958430e-01  -5.7056136938398261e-01  -5.6129494865127549e-01  -5.5243196661232252e-01  -5.4401025218245302e-01  -5.3611745061221072e-01  -5.2864472689306896e-01  -5.2165089441978318e-01  -5.1505172854129300e-01  -5.0888898890591439e-01  -5.0307697365752602e-01  -4.9769613511662880e-01  -4.9266452583170872e-01  -4.8795510444122597e-01  -4.8360362590597605e-01  -4.7959634226240705e-01  -4.7589133084107527e-01  -4.7250146915990998e-01  -4.6941648841552186e-01  -4.6659776149965143e-01  -4.6405955423117351e-01  -4.6176504826716719e-01  -4.5971958641058658e-01  -4.5789356522768515e-01  -4.5628732846838826e-01  -4.5486522520192046e-01  -4.5361745018536886e-01  -4.5254850173339245e-01  -4.5162229046197305e-01  -4.5081095183893349e-01  -4.5013078668645556e-01  -4.4954640341160346e-01  -4.4905860752766064e-01  -4.4865325298257408e-01  -4.4831601956407968e-01  -4.4804752673235682e-01  -4.4782983393999032e-01  -4.4766957654489514e-01  -4.4756782706770454e-01  -4.4751376306028579e-01  -4.4750242590019662e-01  -4.4754519922659769e-01  -4.4763710400484308e-01  -4.4778506149019293e-01  -4.4799038383559880e-01  -4.4826383018856758e-01  -4.4860636380776725e-01  -4.4902336338720827e-01  -4.4953593466512681e-01  -4.5011770055800443e-01  -4.5080701532658196e-01  -4.5164066523545443e-01  -4.5256168311797024e-01  -4.5360454106215464e-01  -4.5477602876990114e-01  -4.5607550963252036e-01  -4.5752279637414345e-01  -4.5910038449799523e-01  -4.6080415265038777e-01  -4.6467979195770071e-01  -4.6680033132837184e-01  -4.6905353562869656e-01  -4.7149752094816011e-01  -4.7405596163877473e-01  -4.7669295964931668e-01  -4.7942415910470498e-01  -4.8231382167508768e-01  -4.8526336330251757e-01  -4.8830313526653191e-01  -4.9139673652888116e-01  -4.9456898482741862e-01  -4.9775052184289975e-01  -5.0098458974631555e-01  -5.0424455420570391e-01  -5.0748888246964097e-01  -5.1073954998269566e-01  -5.1395805950215345e-01  -5.1717118433334530e-01  -5.2032336096899390e-01  -5.2344407673902438e-01  -5.2653191028849233e-01  -5.2955049778551455e-01  -5.3253149450651172e-01  -5.3542563010985933e-01  -5.3829174358197862e-01  -5.4108818818900239e-01  -5.4384264955896577e-01  -5.4655235650622924e-01  -5.4923555592676121e-01  -5.5189867016658678e-01  -5.5454013277262371e-01  -5.5720258644980880e-01  -5.5987761903211231e-01  -5.6260705191988369e-01  -5.6538306722514697e-01  -5.6825572835577010e-01  -5.7122125707531723e-01  -5.7433765780827228e-01  -5.7759294625980040e-01  -5.8104488962442846e-01  -5.8468178899203360e-01  -5.8857126780291680e-01  -5.9272417644068909e-01  -5.9714255635384017e-01  -6.0184839688162151e-01  -6.0692853051613749e-01  -6.1233086550365234e-01  -6.1812822899902997e-01  -6.2430456921726196e-01  -6.3085531199647704e-01  -6.3790075054542683e-01  -6.4534415618734753e-01  -6.5323894039118169e-01  -6.6164867538115579e-01  -6.7047311982854585e-01  -6.7987923860176835e-01  -6.8970091175629511e-01  -7.0000922911733909e-01  -7.1098598679020730e-01  -7.2228973253235540e-01  -7.3407656393966481e-01  -7.4639361677983962e-01  -7.5923286943531054e-01  -7.7243627030280526e-01  -7.8612282651059373e-01  -8.0016835001420605e-01  -8.1465063282202643e-01  -8.2929598269317706e-01  -8.4413384721751206e-01  -8.5927793729283475e-01  -8.7442778851785452e-01  -8.8978200865368962e-01  -9.0517720305470339e-01  -9.2023814836426066e-01  -9.3501956168943823e-01  -9.4960055211299266e-01  -9.6388395440154551e-01  -9.9054101722707522e-01  -1.0028106035985349e+00  -1.0142708806819023e+00  -1.0246189188376309e+00  -1.0338186746414328e+00  -1.0417315492514738e+00  -1.0483666517376258e+00  -1.0535696027430173e+00  -1.0570597714989276e+00  -1.0588641734876447e+00  -1.0587348286797411e+00  -1.0569641023726459e+00  -1.0529802488346136e+00  -1.0471488428063311e+00  -1.0389888984127538e+00  -1.0283758960675120e+00  -1.0156352262307347e+00  -1.0005127669610523e+00  -9.8310326153629146e-01  -9.6301528469920106e-01  -9.4063923173825204e-01  -9.1556327524360015e-01  -8.8797678826626025e-01  -8.5806371229407663e-01  -8.2555464093000230e-01  -7.9078181935180381e-01  -7.5305517007374079e-01  -7.1310600196488838e-01  -6.7093614113885380e-01  -6.2629792797664352e-01  -5.7955256018469292e-01  -5.3042532166842293e-01  -4.7936924024864647e-01  -4.2599602120072205e-01  -3.7104654611497495e-01  -3.1391766517666064e-01  -2.5532082189547495e-01  -1.9482775949217751e-01  -1.3319599592253414e-01  -6.9970379106369066e-02  -5.2964445336721290e-03  6.0129476655778377e-02  1.2628688699382701e-01  1.9378268543880109e-01  2.6183781879307289e-01  3.3012636617961116e-01  3.9905385646168690e-01  4.6803328160314106e-01  5.3685816995639546e-01  6.0591094826908853e-01  6.7438770941471349e-01  7.4269434743934437e-01  8.1010558705465929e-01  8.7697026740210571e-01  9.4253022280572996e-01  1.0073363792970074e+00  1.0708193338841565e+00  1.1327093578927261e+00  1.1929469463819822e+00  1.2516560572738427e+00  1.3084164057393985e+00  1.3628015248835819e+00  1.4154290022922977e+00  1.4654614372150718e+00  1.5132321364005379e+00  1.5582273134838767e+00  1.6006921041836684e+00  1.6405373632902096e+00  1.6769642504077356e+00  1.7102719800451780e+00  1.7414007371994091e+00  1.7684137277570116e+00  1.7924356432981168e+00  1.8133042842330649e+00  1.8302606703458775e+00  1.8446717472348839e+00  1.8548797390187979e+00  1.8617507591580540e+00  1.8650269831444164e+00  1.8614172986817332e+00  1.8543180200465281e+00  1.8437768208529557e+00  1.8297268883996021e+00  1.8117481781556737e+00  1.7907328911340652e+00  1.7667995754930053e+00  1.7393574670983312e+00  1.7085626945126184e+00  1.6747783234621334e+00  1.6378797013698112e+00  1.5983056622346536e+00  1.5556997594132556e+00  1.5105995788977933e+00  1.4626883509473645e+00  1.4125771943621253e+00  1.3599389278854794e+00  1.3054343488646090e+00  1.2487152952804004e+00  1.1903631330112305e+00  1.1299865358957009e+00  1.0682891101659169e+00  1.0050167713288602e+00  9.4078902999838332e-01  8.7525632327270353e-01  8.0898160288796606e-01  7.4184890665176206e-01  6.7445305305030656e-01  6.0646675653239845e-01  5.3816279102985465e-01  4.7013719332328280e-01  4.0206128530788127e-01  3.3429397492842494e-01  2.6693386752774839e-01  2.0020421008401312e-01  1.3422969897662188e-01  6.9125730207188041e-02  5.4029998164506366e-03  -5.7370754784519390e-02  -1.1852574166598630e-01  -1.7858580323542383e-01  -2.3688304840828472e-01  -2.9299304428236378e-01  -3.4772325698678053e-01  -4.0024066131516345e-01  -4.5087539191634429e-01  -4.9951851237724099e-01  -5.4548039358826361e-01  -5.8920693017283876e-01  -6.3061506787723542e-01  -6.6984539219650641e-01  -7.0628055298996106e-01  -7.4046270182439355e-01  -7.7176016777442935e-01  -8.0070706118724644e-01  -8.2690023817531788e-01  -8.5071462627986749e-01  -8.7183098981105467e-01  -8.9059456102642265e-01  -9.0662580524877134e-01  -9.2019704323420803e-01  -9.3136278032199760e-01  -9.4030935164343765e-01  -9.4693247432644179e-01  -9.5128350889839153e-01  -9.5362240684323285e-01  -9.5419630077201711e-01  -9.5277672655601531e-01  -9.4909130347212578e-01  -9.4425793611066067e-01  -9.3773508373596370e-01  -9.2977278376945627e-01  -9.2046557226039016e-01  -9.0997146824073538e-01  -8.9842853534214551e-01  -8.8594571664342603e-01  -8.7273631886979075e-01  -6.0690442729195848e-01  -4.7970649719993375e-01  -5.2442684086019720e-01  -3.6207740234014596e-01  -1.8982518646662253e-01  7.0220780462579444e-02  4.3026103590640807e-01  8.4959887888336627e-01  8.0912289000297211e-01  3.3450573186879273e-01  -6.5495005962104471e-03  -4.3964334355893564e-01  -4.0282158969488213e-01  -2.9912086277944294e-01  -5.1976367771915566e-01  -5.6624031552852794e-01  -3.6705309066613923e-01  -1.9526474408595884e-01  2.8521390795572760e-01  8.2888215104202823e-01  1.2716902845460782e+00  1.1578102876786844e+00  5.0086916416975791e-01  -1.4618264448314504e-02  -4.5900333506480850e-01  -4.3517558172342841e-01  -5.3896914347597791e-01  -3.7352167035416933e-01  -1.6307462840697978e-01  2.3429982713378983e-01  -5.5317541704458395e-01  -5.7012344206346810e-01  -4.3995324704400668e-01  -4.7709839000285292e-01  -5.2127429449035101e-01  -4.8937978494638101e-01  8.8344993224932611e-01  2.4767822274307172e-01  -2.6608853796148108e-01  7.6660562219218475e-01  1.3347767400306589e+00  1.6016299624954871e+00  1.5005345845924034e+00  -5.8771381696477654e-01  -9.5844727787764802e-02  -1.1403508230653701e-01  -6.3051790695711796e-01  -5.8641529836835615e-01  -6.5910832036753464e-02  -5.5831149592655636e-04  -4.6128886430544003e-01  -4.4797897657760849e-01  4.8878051391438582e-02  1.1881914135415448e+00  5.0816686992684018e-02  -4.4592921444104128e-01  -4.5318405422658964e-01  -4.7694015841683646e-01  -5.7244148700302167e-01  -5.3894468902059078e-01  -5.1051517622583609e-01  3.1954989223399156e-02  -5.8524084813926824e-01  -2.6669301341055568e-01  7.3802334544540515e-01  1.9844468989695174e-01  -2.2563332669065489e-01  -5.2873305241617286e-01  -6.1117135521488342e-01  -7.0184176008671717e-01  2.1308803219890933e-02  -4.7556956374743409e-01  -6.1186340968741448e-01  -5.5526170358579319e-01  1.7196967127005476e+00  1.7422089765187114e+00  1.5201191707977006e+00  1.1177465548702927e+00  -7.4923298821621676e-01  3.9439543903750179e-01  -1.9006940719875862e-01  -6.6276801248675465e-01  -8.0736278289736407e-01  -6.7735009708407290e-01  -7.5603889860413298e-01  -2.4611648759191834e-02  1.5997875907349914e+00  -2.1092860551499260e-01  -8.8356577241768031e-01  -7.9752337811473906e-01  -4.5378005019631190e-01  -6.7815230469786408e-02  3.4371506534613627e-02  1.6312497898588556e-02  2.9353281078908364e-02  -1.1682909963039652e-01  -5.2400463505902839e-01  -4.4805610009642760e-01  -5.7100047593576875e-01  -4.8915290561004615e-01  -4.6180192932843867e-01  1.3744950451851263e+00  -4.3324246031766184e-01  1.0571510229481742e+00  -9.0745937850645914e-02  -2.8521508141392777e-02  -5.8311482176116869e-01  -5.3971532665881539e-01  -5.0624249124912268e-01  -5.9110947822538951e-01  7.0317583933509620e-01  -4.7217951732187913e-01  2.7686043917920764e-02  5.5456712057672022e-04  -8.5145538484644712e-01  -6.7516618966131181e-01  -5.7291505047198299e-01  -4.5185740166985217e-01  6.2644352104165746e-02  5.3407687757175061e-02  -5.1157251404170256e-01  2.7586420714077614e-01  1.0325615994100737e-01  4.2511538588915009e-02  4.1713117590312071e-02  -2.1706373478326602e-01  4.6497407543730551e-01  1.0545213618067682e-01  -1.5978896491069475e-01  1.3169611272191735e+00  2.0846783652729229e-02  -8.9900038160032514e-01  -4.4979264443260375e-01  1.0209520010770745e+00  -5.8384655305193589e-01  5.0185818868631847e-03  -1.2882414353540902e-01  3.7378167113671473e-01  -4.4910363814315901e-01  7.4116600275152333e-01  8.0867649228716842e-01  -5.1562363689960999e-01  -4.6199105097074750e-01  5.1820250075574847e-01  -8.4679121522816470e-01  -7.0216077894398476e-01  -5.7229084590909340e-01  -3.8816624203205985e-01  -1.2101489962446180e-01  -5.0113680518789927e-01  -7.1196495809669125e-01  1.0487491660210448e+00  -6.1797410069731973e-01  -6.5108792296317142e-01  -9.2910867078503032e-02  -2.2762365044420113e-02  1.6806311023666967e+00  1.9911650213420065e-01  1.8130540834431663e+00  1.7679996259861508e+00  1.3861796617415174e+00  1.4483641388017500e-02  -3.2425182599831855e-02  -5.5935274745817866e-02  -2.0151184653411058e-01  -5.6385200742101890e-02  -8.9649012450696297e-01  -8.8073715651009438e-02  -4.0177341746050954e-01  6.0692062136852236e-02  4.5897008434495214e-02  -8.5424544235960453e-01  -4.0374362138477277e-01  2.6305843127044953e-02  -8.0166253273186827e-01  -5.5201719616382949e-01  -4.9023723250575846e-01  -4.6748525488347464e-01  -4.5519578969111618e-01  5.4988400819689187e-01  5.3512977253335682e-02  5.5708160139892313e-02  -5.4622907110790320e-01  -4.9343248359381442e-01  1.7899084072837859e-01  -5.4629309649986069e-01  -3.4270547787003541e-01  -2.2388344275469774e-01  6.3786475867896242e-01  -6.3467447768815455e-01  1.0913106350187197e-02  -9.8324831768974208e-01  3.3201352651474308e-02  7.7328880045195669e-02  3.9862067185656358e-01  4.1147423958130369e-01  -5.6278486626215907e-01  1.7940101898850347e+00  -2.8744796679515344e-01  1.6918103176229389e+00  1.5537963035932849e+00  1.5089146713165611e+00  -7.2746215354758803e-01  -4.7564401056900413e-01  8.8730724889095142e-02  -4.5147113608420342e-01  7.8245845154225491e-01  -3.6506208101227022e-01  -7.4135248465218750e-01  -4.3394037395612006e-01  3.2529584311201371e-02  -1.1685553803870098e-01  -9.8697435581677462e-01  1.0907811549959510e+00  -4.3610141791608364e-01  -6.9109015103223093e-01  -9.7259449242033680e-01  -2.1739976526292251e-01  3.4906793773359174e-01  -4.4221778451699638e-03  -2.0793667659019319e-01  3.5467603316059715e-01  -5.2887625117507642e-01  -5.1694974180676612e-01  5.4235652115644806e-01  -4.8476548028064359e-01  -4.6529656987056406e-01  -7.9128128732619729e-01  -3.9705717832106163e-01  5.1878360148797620e-01  -4.4842401354910977e-01  -5.3019181113515008e-02  -8.7628645420401374e-01  1.2101456679562994e+00  9.1500904075436252e-03  1.2083613756691201e+00  4.3235434790149985e-01  -7.2895122805182611e-01  -4.9559862225858237e-01  -4.4405663807108542e-01  -5.8466818541821841e-01  -7.6261963564937418e-01  -5.8981884127302375e-02  -4.2645600034809626e-02  1.4186029297995145e-01  -3.5716784296814384e-03  -2.6507212092000193e-01  -5.5734290104263950e-02  2.8933908999585489e-01  -5.1788122961637839e-01  -4.4943238316216388e-01  -5.0870469649914977e-02  -2.0145684619511173e-01  3.4101145245341836e-02  -4.9402108894514335e-01  -4.5741380358624700e-01  -4.7066042913212897e-01  -4.5176390245421727e-01  -5.4497206421882349e-01  -4.4852929492402971e-01  1.5860696950388544e+00  -5.1075644901270012e-01  4.4164853884522237e-02  -5.4763202842615488e-01  -1.7599055582762957e-01  5.2677971867232921e-02  5.3109572204096200e-01  1.0563443023632395e+00  4.6559526241757049e-02  -1.6221591509136335e-01  -7.8111600703317158e-02  4.9399303536958976e-02  -8.5426460096950163e-01  -9.1023496659793102e-01  -5.6823716355936260e-01  1.0903607954796606e-01  2.1768916245202230e-01  -4.1399588076278504e-01  8.56992