<?xml version="1.0"?>
<VTKFile type="UnstructuredGrid"  version="0.1"  >
<UnstructuredGrid>
<Piece  NumberOfPoints="5712" NumberOfCells="10893">
<Points>
<DataArray  type="Float64"  NumberOfComponents="3"  format="ascii">0 0 0  0 0.41 0  2.2 0 0  2.2 0.41 0  0.2 0.25 0  0.25 0.2 0  0.2 0.15 0  0.15 0.2 0  0 0.3904761904762147 0  0 0.3709523809524729 0  0 0.3514285714286954 0  0 0.3319047619049458 0  0 0.3123809523811823 0  0 0.2928571428574404 0  0 0.2733333333336768 0  0 0.2538095238099349 0  0 0.2342857142861567 0  0 0.2147619047624078 0  0 0.1952380952385999 0  0 0.1757142857147328 0  0 0.1561904761908952 0  0 0.1366666666670465 0  0 0.1171428571431906 0  0 0.09761904761931661 0  0 0.0780952380954425 0  0 0.05857142857161174 0  0 0.03904761904773757 0  0 0.01952380952386334 0  0.01986745845578998 0 0  0.03982462845278956 0 0  0.05987191195217309 0 0  0.0800097046343772 0 0  0.1002384394563812 0 0  0.1205585077310739 0 0  0.1409703274044529 0 0  0.1614743126654433 0 0  0.1820708739963059 0 0  0.2027604497544275 0 0  0.2235434355718665 0 0  0.2444202633435119 0 0  0.265391361068545 0 0  0.2864571529028895 0 0  0.3076180592107884 0 0  0.3288745151942862 0 0  0.3502269459367295 0 0  0.3716757933139423 0 0  0.3932214934733583 0 0  0.4148644812710909 0 0  0.4366051859408088 0 0  0.4584440653716539 0 0  0.48038154995608 0 0  0.5024180900849111 0 0  0.5245541321026944 0 0  0.5467901197490906 0 0  0.5691265226973262 0 0  0.5915637755827025 0 0  0.614102339850345 0 0  0.636742674167927 0 0  0.6594852330945143 0 0  0.6823304884387933 0 0  0.7052788907288091 0 0  0.7283309147437839 0 0  0.751487030986726 0 0  0.7747477057419434 0 0  0.7981134011315298 0 0  0.821584610595033 0 0  0.8451617959659341 0 0  0.8688454391891771 0 0  0.8926360178861791 0 0  0.9165340281873645 0 0  0.9405399372917173 0 0  0.9646542424736072 0 0  0.9888774365267383 0 0  1.013210007824441 0 0  1.037652440378865 0 0  1.06220524733373 0 0  1.086868914509785 0 0  1.111643945154348 0 0  1.136530838720734 0 0  1.161530116277625 0 0  1.186642266933783 0 0  1.211867807739771 0 0  1.237207251805963 0 0  1.26266110764717 0 0  1.288229902058941 0 0  1.313914143782356 0 0  1.339714360040014 0 0  1.36563107331828 0 0  1.391664802767304 0 0  1.417816093074858 0 0  1.444085461454821 0 0  1.470473442759746 0 0  1.496980573539167 0 0  1.523607398041112 0 0  1.550354449227912 0 0  1.577222271446548 0 0  1.60421140927435 0 0  1.631322413213628 0 0  1.658555830029694 0 0  1.685912218634225 0 0  1.713392126884173 0 0  1.740996123438425 0 0  1.768724751279777 0 0  1.796578588883932 0 0  1.824558192783585 0 0  1.852664140769835 0 0  1.880896988683294 0 0  1.909257322654582 0 0  1.93774570990443 0 0  1.966362727809846 0 0  1.995108970713317 0 0  2.023985006033532 0 0  2.052991427225145 0 0  2.082128822851723 0 0  2.111397799134646 0 0  2.140798904430552 0 0  2.170332790993664 0 0  2.2 0.02928571428565775 0  2.2 0.05857142857131794 0  2.2 0.08785714285694929 0  2.2 0.1171428571425731 0  2.2 0.1464285714282011 0  2.2 0.1757142857138497 0  2.2 0.2049999999994743 0  2.2 0.2342857142852724 0  2.2 0.2635714285710462 0  2.2 0.2928571428568132 0  2.2 0.3221428571426234 0  2.2 0.3514285714283903 0  2.2 0.3807142857142005 0  2.170332790993718 0.41 0  2.140798904430656 0.41 0  2.111397799134855 0.41 0  2.082128822859404 0.41 0  2.052991427232898 0.41 0  2.023985006041361 0.41 0  1.99510897072121 0.41 0  1.966362727817755 0.41 0  1.937745709912357 0.41 0  1.90925732266254 0.41 0  1.880896988691295 0.41 0  1.852664140777879 0.41 0  1.824558192791673 0.41 0  1.79657858889206 0.41 0  1.768724751287952 0.41 0  1.740996123446639 0.41 0  1.713392126892427 0.41 0  1.685912218642533 0.41 0  1.658555830038071 0.41 0  1.631322413222075 0.41 0  1.604211409282859 0.41 0  1.577222271455122 0.41 0  1.55035444923655 0.41 0  1.523607398049813 0.41 0  1.496980573547932 0.41 0  1.470473442768574 0.41 0  1.444085461463712 0.41 0  1.417816093083807 0.41 0  1.391664802776313 0.41 0  1.365631073327341 0.41 0  1.339714360049107 0.41 0  1.31391414379148 0.41 0  1.288229902068097 0.41 0  1.262661107656355 0.41 0  1.237207251815179 0.41 0  1.211867807749015 0.41 0  1.186642266943055 0.41 0  1.161530116286924 0.41 0  1.13653083873006 0.41 0  1.111643945163706 0.41 0  1.086868914519036 0.41 0  1.062205247342763 0.41 0  1.037652440387677 0.41 0  1.013210007833036 0.41 0  0.9888774365351134 0.41 0  0.9646542424817568 0.41 0  0.9405399372996428 0.41 0  0.916534028195068 0.41 0  0.8926360178936621 0.41 0  0.8688454391964415 0.41 0  0.8451617959729809 0.41 0  0.8215846106018625 0.41 0  0.7981134011381465 0.41 0  0.7747477057483507 0.41 0  0.7514870309929218 0.41 0  0.7283309147497725 0.41 0  0.7052788907345926 0.41 0  0.6823304884443711 0.41 0  0.6594852330998913 0.41 0  0.6367426741731019 0.41 0  0.6141023398553211 0.41 0  0.5915637755874821 0.41 0  0.5691265227019089 0.41 0  0.5467901197534788 0.41 0  0.5245541321068876 0.41 0  0.5024180900889137 0.41 0  0.4803815499598949 0.41 0  0.458444065375283 0.41 0  0.4366051859442526 0.41 0  0.4148644812743503 0.41 0  0.3932214934764355 0.41 0  0.3716757933168389 0.41 0  0.3502269459394474 0.41 0  0.3288745151968251 0.41 0  0.3076180592131517 0.41 0  0.2864571529050777 0.41 0  0.2653913610705745 0.41 0  0.2444202633453989 0.41 0  0.2235434355736121 0.41 0  0.202760449756034 0.41 0  0.1820708739977555 0.41 0  0.1614743126667344 0.41 0  0.140970327405586 0.41 0  0.120558507732039 0.41 0  0.1002384394571796 0.41 0  0.08000970463500767 0.41 0  0.05987191195264252 0.41 0  0.03982462845310097 0.41 0  0.01986745845594617 0.41 0  0.2009941093832422 0.2499901164885035 0  0.2019878257548352 0.2499604698613656 0  0.2029807562584742 0.2499110718390977 0  0.2039725083485626 0.2498419419507366 0  0.2049626899453778 0.2497531075261239 0  0.2059509095900689 0.2496446036851018 0  0.2069367765994233 0.2495164733236293 0  0.2079199012203332 0.2493687670968211 0  0.208899894783849 0.2492015433989262 0  0.209876369858873 0.2490148683402368 0  0.2108489404052936 0.2488088157209575 0  0.2118172219266183 0.248583467002027 0  0.2127808316219855 0.248338911272912 0  0.2137393885375067 0.2480752452163837 0  0.2146925137168532 0.2477925730703012 0  0.2156398303510693 0.247491006586403 0  0.2165809639275547 0.2471706649861239 0  0.2175155423781385 0.2468316749134561 0  0.2184431962261471 0.2464741703848905 0  0.2193635587324768 0.2460982927364335 0  0.2202762660405913 0.2457041905677276 0  0.2211809573203641 0.2452920196833053 0  0.2220772749107273 0.2448619430309942 0  0.2229648644610677 0.2444141306374986 0  0.2238433750713457 0.2439487595411649 0  0.2247124594307593 0.2434660137220228 0  0.2255717739550953 0.2429660840290282 0  0.2264209789225549 0.2424491681046155 0  0.227259738608055 0.2419154703065648 0  0.2280877214159585 0.2413652016272072 0  0.2289046000111568 0.2407985796100187 0  0.2297100514485014 0.2402158282636004 0  0.2305037573004443 0.2396171779731418 0  0.2312854037829426 0.2390028654093291 0  0.2320546818795267 0.2383731334347658 0  0.2328112874634348 0.2377282310079845 0  0.2335549214178666 0.2370684130850081 0  0.2342852897542382 0.2363939405185524 0  0.23500210372839 0.2357050799549172 0  0.2357050799547543 0.2350021037285561 0  0.236393940518396 0.2342852897544042 0  0.2370684130848552 0.2335549214180355 0  0.2377282310078377 0.2328112874636036 0  0.2383731334346237 0.2320546818796969 0  0.2390028654091947 0.2312854037831102 0  0.2396171779730177 0.2305037573006055 0  0.2402158282634863 0.2297100514486559 0  0.2407985796099098 0.2289046000113105 0  0.2413652016271038 0.2280877214161108 0  0.2419154703064672 0.2272597386082051 0  0.2424491681045289 0.2264209789226942 0  0.2429660840289533 0.2255717739552211 0  0.2434660137219522 0.2247124594308835 0  0.2439487595410967 0.2238433750714713 0  0.2444141306374335 0.2229648644611936 0  0.2448619430309386 0.2220772749108404 0  0.2452920196832561 0.2211809573204692 0  0.2457041905676833 0.2202762660406911 0  0.2460982927363924 0.2193635587325747 0  0.246474170384854 0.2184431962262392 0  0.2468316749134214 0.2175155423782314 0  0.2471706649860917 0.216580963927646 0  0.2474910065863757 0.215639830351152 0  0.2477925730702761 0.2146925137169349 0  0.2480752452163603 0.2137393885375889 0  0.2483389112728914 0.2127808316220633 0  0.248583467002012 0.2118172219266803 0  0.2488088157209458 0.2108489404053462 0  0.2490148683402261 0.2098763698589259 0  0.249201543398917 0.2088998947838999 0  0.2493687670968142 0.2079199012203759 0  0.2495164733236233 0.2069367765994661 0  0.2496446036850975 0.205950909590105 0  0.2497531075261207 0.2049626899454101 0  0.2498419419507343 0.2039725083485922 0  0.2499110718390968 0.2029807562584889 0  0.2499604698613655 0.2019878257548365 0  0.2499901164885035 0.2009941093832422 0  0.2499901164885035 0.1990058906167579 0  0.2499604698613656 0.1980121742451648 0  0.2499110718390977 0.1970192437415259 0  0.2498419419507366 0.1960274916514374 0  0.2497531075261239 0.1950373100546222 0  0.2496446036851018 0.1940490904099311 0  0.2495164733236293 0.1930632234005767 0  0.2493687670968211 0.1920800987796668 0  0.2492015433989262 0.191100105216151 0  0.2490148683402368 0.190123630141127 0  0.2488088157209575 0.1891510595947065 0  0.248583467002027 0.1881827780733817 0  0.248338911272912 0.1872191683780146 0  0.2480752452163837 0.1862606114624933 0  0.2477925730703012 0.1853074862831468 0  0.247491006586403 0.1843601696489307 0  0.2471706649861239 0.1834190360724454 0  0.2468316749134561 0.1824844576218615 0  0.2464741703848905 0.181556803773853 0  0.2460982927364335 0.1806364412675232 0  0.2457041905677276 0.1797237339594087 0  0.2452920196833053 0.1788190426796359 0  0.2448619430309942 0.1779227250892727 0  0.2444141306374986 0.1770351355389324 0  0.2439487595411649 0.1761566249286543 0  0.2434660137220228 0.1752875405692407 0  0.2429660840290282 0.1744282260449047 0  0.2424491681046155 0.1735790210774451 0  0.2419154703065648 0.172740261391945 0  0.2413652016272072 0.1719122785840415 0  0.2407985796100187 0.171095
[...]
<PointData  Scalars="f_19"> 
<DataArray  type="Float64"  Name="f_19"  format="ascii">4.6098168321969324e-01  5.3235184249933098e-01  0.0000000000000000e+00  0.0000000000000000e+00  -7.8166853160674277e-01  -4.3931907924140590e-01  -1.1330856298347090e+00  1.9792370282080949e+00  5.3237465851478927e-01  5.3612151062168967e-01  5.4814502661836306e-01  5.7126574767663763e-01  6.0719709555033252e-01  6.5368281210298096e-01  7.0687157447305637e-01  7.5920749380414165e-01  8.0197314354699001e-01  8.2510677401848731e-01  8.2236635222467047e-01  7.9402334373646377e-01  7.4408091259611231e-01  6.8146521237680346e-01  6.1735652016809406e-01  5.5974724097477691e-01  5.1458296415354199e-01  4.8403793538768769e-01  4.6697413960790857e-01  4.6114548100345892e-01  4.5989930506127602e-01  4.5625447102500399e-01  4.4837791945569794e-01  4.3482299012355285e-01  4.1389569761009121e-01  3.8424233465112956e-01  3.4527561397410883e-01  2.9791655978617093e-01  2.4496506619131275e-01  1.9078959885606123e-01  1.4111137632639581e-01  1.0189935643980126e-01  7.6917951811126192e-02  6.7183553891307660e-02  7.4477515170449246e-02  9.9375978040717211e-02  1.3714735529873384e-01  1.7886621292460586e-01  2.2845477302762232e-01  2.7545679679325125e-01  3.1222326439220999e-01  3.3660296996205036e-01  3.4322574042956921e-01  3.3151583946495805e-01  3.0062472221213460e-01  2.5233396446567163e-01  1.9761853245973884e-01  1.5255546599680558e-01  1.1921260608781094e-01  1.0371019553875800e-01  9.9665636051323989e-02  1.0002658546267766e-01  1.0785740824930812e-01  1.2776522950880426e-01  1.6425127681953902e-01  2.0933542946307329e-01  2.5443859372465472e-01  2.9293503177204150e-01  3.1305982114827458e-01  3.1856595679273636e-01  3.1138151522541813e-01  2.9254162295640612e-01  2.6804496400637429e-01  2.3329000684183590e-01  1.9336076861705923e-01  1.4436570239769250e-01  9.1548773829690067e-02  3.8590669696758458e-02  -5.3828720814084949e-03  -3.1219442014333758e-03  2.8693610019325570e-02  9.3816996676866868e-02  1.6379108200304651e-01  2.2444352698064876e-01  2.6007198822764865e-01  2.7645415080677010e-01  2.7068148196646685e-01  2.4680071829152966e-01  2.0154363891013677e-01  1.4268760410172737e-01  7.7632154231552786e-02  1.3560576751003240e-02  -3.3155977403917888e-02  -5.4004688760499096e-02  -5.2326131310473402e-02  -1.3552541256471646e-02  3.5208040475786767e-02  8.9576357878604365e-02  1.3478525424180948e-01  1.6658144885760701e-01  1.7753668817381912e-01  1.7014870544050054e-01  1.4689375219843470e-01  1.0598057078285346e-01  5.5755605925074989e-02  5.3694595090772387e-03  -4.1664055877967524e-02  -6.9336409787643202e-02  -7.1792977116417259e-02  -4.6683125456371002e-02  -8.0530671015619521e-03  3.8470591488537188e-02  8.1242125051289082e-02  1.0898340240510347e-01  1.2327458593289298e-01  1.2097185137117582e-01  1.0262295451072545e-01  7.0793714983863956e-02  3.5281169200398338e-02  0.0000000000000000e+00  0.0000000000000000e+00  0.0000000000000000e+00  0.0000000000000000e+00  0.0000000000000000e+00  0.0000000000000000e+00  0.0000000000000000e+00  0.0000000000000000e+00  0.0000000000000000e+00  0.0000000000000000e+00  0.0000000000000000e+00  0.0000000000000000e+00  0.0000000000000000e+00  -2.4101927988370769e-02  -5.5091267723768496e-02  -8.6296816670713428e-02  -1.0186939257199264e-01  -1.0185622729574111e-01  -7.7479183004671562e-02  -3.7507225105913686e-02  8.8724325263874592e-03  5.7541400154017534e-02  9.2739228458141990e-02  1.1723297852416494e-01  1.2646066307256201e-01  1.1381598653141885e-01  8.8504087371338358e-02  4.9366630220725918e-02  7.1657613148881794e-03  -3.3374876479756531e-02  -5.7529025910197484e-02  -6.1653633032863739e-02  -4.0640595569174605e-02  5.2453202108813561e-03  6.1106461332389665e-02  1.1896851194507943e-01  1.6759120010467629e-01  2.0438866627015523e-01  2.1729515499915200e-01  2.1562641853039125e-01  1.9295670160285924e-01  1.5051369077595600e-01  9.4431412975568840e-02  3.1583044661104058e-02  -2.0028821995402554e-02  -4.4118141262005139e-02  -2.9508744086939154e-02  2.0033165055680081e-02  8.4904905475947867e-02  1.5559770161506070e-01  2.1463603129411593e-01  2.6292706703624569e-01  2.9496169590700794e-01  3.1857210501170191e-01  3.1612681786943436e-01  2.9618579400121348e-01  2.5371629516357280e-01  1.8850985616842239e-01  1.2123429996207538e-01  6.8377993769264997e-02  4.7556381030325438e-02  5.7120721896991529e-02  8.7611200942634485e-02  1.2859994872409941e-01  1.6950734404278783e-01  2.0812925336380275e-01  2.4318746322587201e-01  2.7776145822383408e-01  3.1006087635153645e-01  3.4006569122579966e-01  3.5985169970855019e-01  3.6848789177983371e-01  3.5890508259680221e-01  3.3193320334981741e-01  2.8988328757679060e-01  2.3742586155830303e-01  1.8126429648947973e-01  1.2506291711314685e-01  8.2702262722219755e-02  5.3870056322323695e-02  4.1110109405453441e-02  4.5236775355101802e-02  5.9660538749486139e-02  8.0936174392556348e-02  1.0405782043504476e-01  1.2794542557944888e-01  1.5258457292027686e-01  1.8170780021591934e-01  2.1222847214834223e-01  2.4888114876909787e-01  2.8910551987381355e-01  3.3055788416398990e-01  3.7398020999765025e-01  4.1379906810537159e-01  4.4857863543781679e-01  4.7636711734474224e-01  4.9728118225019757e-01  5.1079824222306847e-01  5.2041514563027502e-01  5.2556940191040302e-01  5.2970802358784153e-01  5.3111687434547028e-01  -7.6565346359922337e-01  -7.4915487812579262e-01  -7.3232225463556533e-01  -7.1519791514604270e-01  -6.9783797302125627e-01  -6.8024760494333636e-01  -6.6274621810163581e-01  -6.4528891680785150e-01  -6.2809205846992344e-01  -6.1114001874790269e-01  -5.9451310915538691e-01  -5.7810312260606722e-01  -5.6239065119397968e-01  -5.4690044266960181e-01  -5.3183840802014237e-01  -5.1740087780633248e-01  -5.0345614374011194e-01  -4.9014489204640377e-01  -4.7731638013821609e-01  -4.6510215378902375e-01  -4.5346878969533805e-01  -4.4245595549893685e-01  -4.3187670010893908e-01  -4.2177592449010909e-01  -4.1225738490754604e-01  -4.0319272778430526e-01  -3.9465637875725995e-01  -3.8654974531866348e-01  -3.7893453586584785e-01  -3.7171415266714314e-01  -3.6500045991962121e-01  -3.5871978089420326e-01  -3.5286381848876452e-01  -3.4748669718897274e-01  -3.4260904851850027e-01  -3.3821465816255930e-01  -3.3433744321392866e-01  -3.3100553185545367e-01  -3.2819749403786441e-01  -3.2594714011794479e-01  -3.2423000004203001e-01  -3.2305760847169473e-01  -3.2241103380096503e-01  -3.2227924881332892e-01  -3.2263364428804037e-01  -3.2341871043165249e-01  -3.2465160459245934e-01  -3.2626555013143743e-01  -3.2820349481246580e-01  -3.3047177542459255e-01  -3.3296667632429777e-01  -3.3571803031351877e-01  -3.3865118333516947e-01  -3.4176115832608545e-01  -3.4498281729893560e-01  -3.4833571453408868e-01  -3.5176107890130864e-01  -3.5522915594382765e-01  -3.5875167652477430e-01  -3.6232072553359473e-01  -3.6590642186349259e-01  -3.6951187445856987e-01  -3.7313178143086001e-01  -3.7676080508788745e-01  -3.8039796300072498e-01  -3.8404626269153841e-01  -3.8772087697873220e-01  -3.9141549700167838e-01  -3.9515642069771995e-01  -3.9895670332192112e-01  -4.0283925543864690e-01  -4.0680926957061114e-01  -4.1090506429906809e-01  -4.1514097066863093e-01  -4.1954673886129357e-01  -4.2415644166264754e-01  -4.2897469612229489e-01  -4.3401268026877349e-01  -4.4495925236363665e-01  -4.5082785817144988e-01  -4.5700858406510569e-01  -4.6361010050030133e-01  -4.7052361667964449e-01  -4.7768266666459697e-01  -4.8513932459502696e-01  -4.9301915298127402e-01  -5.0113945253525760e-01  -5.0955458442479373e-01  -5.1819939521944591e-01  -5.2711423711245065e-01  -5.3613645058005932e-01  -5.4537468539855805e-01  -5.5473574795423630e-01  -5.6411670838104444e-01  -5.7354680375650902e-01  -5.8292206475911823e-01  -5.9228361768000737e-01  -6.0146491546886227e-01  -6.1053782634840048e-01  -6.1947018054164238e-01  -6.2811713265181590e-01  -6.3656984631314695e-01  -6.4465856808352884e-01  -6.5252019332988187e-01  -6.6001356870238082e-01  -6.6718861982106259e-01  -6.7402283712209010e-01  -6.8054531996126766e-01  -6.8672246373703083e-01  -6.9258250375620145e-01  -6.9816482729893237e-01  -7.0346084512927232e-01  -7.0854744066956787e-01  -7.1340416604233869e-01  -7.1812065163632577e-01  -7.2270360533270506e-01  -7.2725128575962350e-01  -7.3176276459287315e-01  -7.3632648788099475e-01  -7.4095099387156382e-01  -7.4573269549040255e-01  -7.5074078170097902e-01  -7.5594332126797836e-01  -7.6138434464921168e-01  -7.6722355506927520e-01  -7.7340033921838514e-01  -7.7997916414757962e-01  -7.8697037479198384e-01  -7.9433566559414093e-01  -8.0225109562342478e-01  -8.1057986340025423e-01  -8.1936528827267674e-01  -8.2869454183786362e-01  -8.3841601279199240e-01  -8.4872945064516592e-01  -8.5942147076140796e-01  -8.7054817494653958e-01  -8.8233100719130020e-01  -8.9433382566539266e-01  -9.0672827140010592e-01  -9.1956956312074567e-01  -9.3282468344476288e-01  -9.4630361899922000e-01  -9.6011464526924062e-01  -9.7412628645688737e-01  -9.8839383051951824e-01  -1.0026251357926368e+00  -1.0168221765555487e+00  -1.0311109133417293e+00  -1.0451603675853307e+00  -1.0591749364361240e+00  -1.0729786340164922e+00  -1.0861608829082785e+00  -1.0987697040746889e+00  -1.1109090026812487e+00  -1.1224658546317872e+00  -1.1428025189483055e+00  -1.1514890784887286e+00  -1.1590684442328096e+00  -1.1652755163547595e+00  -1.1700383058848189e+00  -1.1732818143754011e+00  -1.1749834597732713e+00  -1.1750599788990059e+00  -1.1731857287943537e+00  -1.1694498430180658e+00  -1.1635790031293458e+00  -1.1559232918231450e+00  -1.1459032122132973e+00  -1.1339295896792991e+00  -1.1195372138640238e+00  -1.1025747456065174e+00  -1.0834519983360424e+00  -1.0618858968637506e+00  -1.0380359463320832e+00  -1.0114803890615225e+00  -9.8264790042564243e-01  -9.5117695543337100e-01  -9.1720645447680971e-01  -8.8098822102552987e-01  -8.4223178979380520e-01  -8.0131542540336431e-01  -7.5756110343009131e-01  -7.1166301832767509e-01  -6.6368711180371409e-01  -6.1335289027062878e-01  -5.6106819831452359e-01  -5.0653375141955548e-01  -4.5024067991887295e-01  -3.9176544833144350e-01  -3.3190060875211386e-01  -2.7000096217305208e-01  -2.0681563951830262e-01  -1.4188606027554906e-01  -7.6001085237627386e-02  -8.7105764438441258e-03  5.9873755111842043e-02  1.2904352589939558e-01  1.9876299143709619e-01  2.6964682768912035e-01  3.4093047235436885e-01  4.1227992296116828e-01  4.8410322130626532e-01  5.5581975070473233e-01  6.2721662918021859e-01  6.9869333814310675e-01  7.6943727062063005e-01  8.3987167942821728e-01  9.0926407717021396e-01  9.7797498674159722e-01  1.0452380256803533e+00  1.1116195696428059e+00  1.1765594203440386e+00  1.2397761891730665e+00  1.3012134567368658e+00  1.3610180678054458e+00  1.4187697971800375e+00  1.4740296686524175e+00  1.5274383139529677e+00  1.5781541397064418e+00  1.6265170165734799e+00  1.6720172155438795e+00  1.7149012008973279e+00  1.7550952882586908e+00  1.7917853891909914e+00  1.8252781812476131e+00  1.8565406915105551e+00  1.8836073890984693e+00  1.9076287755757708e+00  1.9284379263974061e+00  1.9452790547940941e+00  1.9595286044673277e+00  1.9695207730107733e+00  1.9761342087961637e+00  1.9787685133891004e+00  1.9747788869809271e+00  1.9672683626489660e+00  1.9562798852235634e+00  1.9417566745157826e+00  1.9232716182227489e+00  1.9017235630042517e+00  1.8772335535604647e+00  1.8492155484709714e+00  1.8178192308979821e+00  1.7834170085827585e+00  1.7458763443018364e+00  1.7056497916322579e+00  1.6623706367701605e+00  1.6165869774629074e+00  1.5679738243467578e+00  1.5171520383156050e+00  1.4637854031632140e+00  1.4085450247902664e+00  1.3510744723991372e+00  1.2919671158509773e+00  1.2308217200115543e+00  1.1683486407106516e+00  1.1042862773735453e+00  1.0392640609019121e+00  9.7292564171235174e-01  9.0583679956801633e-01  8.3787706874760592e-01  7.6965103219719966e-01  7.0083306272004797e-01  6.3167878575032765e-01  5.6280410067767950e-01  4.9387530959769110e-01  4.2524415825236672e-01  3.5700697741798981e-01  2.8939261736458904e-01  2.2253235352437284e-01  1.5653172075192173e-01  9.1915887380496705e-02  2.8244567462529662e-02  -3.3809034566911748e-02  -9.4780249075262668e-02  -1.5398854044735266e-01  -2.1099500833838641e-01  -2.6663340068184044e-01  -3.2005124845857369e-01  -3.7158286767204435e-01  -4.2112247320480956e-01  -4.6795719384796708e-01  -5.1254339871267618e-01  -5.5479646334415933e-01  -5.9485939684650369e-01  -6.3209940099294548e-01  -6.6706806844492050e-01  -6.9911077791950904e-01  -7.2877018189643095e-01  -7.5563150417246627e-01  -7.8007579761233514e-01  -8.0176622988742752e-01  -8.2105129226284124e-01  -8.3753155693094494e-01  -8.5148643565195059e-01  -8.6296190271987594e-01  -8.7214327344389986e-01  -8.7891301918810860e-01  -8.8332005683467163e-01  -8.8561956628123184e-01  -8.8605893940293134e-01  -8.8439777777825812e-01  -8.8035232963052812e-01  -8.7505855752581274e-01  -8.6795537791843258e-01  -8.5929764338395009e-01  -8.4917592932457475e-01  -8.3775254375200991e-01  -8.2516378724914530e-01  -8.1152165501786644e-01  -7.9704316504716466e-01  2.5733687823571248e-03  -3.9039268808227406e-01  -4.9638077190626445e-01  -1.4094190208993243e-01  3.6950084817516077e-02  2.6553538568335511e-01  5.7992984484127130e-01  9.7184548417963179e-01  9.0743386395414849e-01  4.0874488620472099e-01  5.0130665340166233e-02  -4.8864813788798156e-01  -2.3440476031266561e-01  -1.2120223997596616e-01  -5.9131524436127769e-01  -7.2715637179278736e-01  -3.6827828624033199e-01  -3.7029985000148063e-02  4.3045265346450373e-01  9.5500193567276781e-01  1.3851834318684593e+00  1.2570053996977704e+00  5.7318171735819556e-01  2.1104179651221869e-02  -4.0227254845328952e-01  -2.8577013753438596e-01  -6.8667530842664282e-01  -3.9223552047890992e-01  -3.2598734012815885e-02  3.5609150534037254e-01  -7.2478045117819845e-01  -7.1002067955322601e-01  -2.8007263446401781e-01  -3.4591214230634948e-01  -3.9952982692436956e-01  -5.0625829541881617e-01  9.7155952017374370e-01  3.0696022749874041e-01  -2.5109072930994697e-01  8.8232491188348317e-01  1.4497248653970263e+00  1.7137563556238602e+00  1.6078211874030177e+00  -6.3141673415787092e-01  1.9130277297223972e-02  2.3181530530922416e-02  -7.4704484782032399e-01  -4.7944053916109974e-01  -2.8338936114952199e-02  -1.2417722720265392e-02  -4.1335310260030733e-01  -3.4922917367221457e-01  -8.5494455343789785e-02  1.2893010831162757e+00  -5.7720407865740127e-02  -3.1652373660383687e-01  -3.0871197469315204e-01  -3.4055666777923299e-01  -7.2758431427474979e-01  -6.7179426084987592e-01  -5.7833926404536862e-01  -1.1548930159478282e-01  -4.8811469021371312e-01  -1.6368635711247387e-01  8.2809185555512732e-01  2.6503339279473881e-01  -1.9139481542014267e-01  -4.0640863933859822e-01  -5.0604462515983262e-01  -6.0976345200935878e-01  1.2180385985807343e-01  -4.6616128702239779e-01  -7.6922299617695000e-01  -7.0124588191654702e-01  1.8321106710322437e+00  1.8548988866642691e+00  1.6312140679532361e+00  1.2276757518504113e+00  -8.6034220543023776e-01  4.9594066668672365e-01  3.6100682683683788e-01  -6.7694524174278037e-01  -8.6442914616708555e-01  -8.4060632299723226e-01  -9.1703204414067763e-01  1.4276296243839143e-01  1.7113200915125542e+00  9.0903610943774096e-02  -9.9005776146896507e-01  -7.1634306991932528e-01  -3.9024727223108141e-01  -2.3186636224035514e-01  2.0982615165393434e-01  7.2133679016464544e-02  1.8344045616157034e-01  -3.3628936268647608e-01  -6.1740197029743327e-01  -3.4459412426593200e-01  -7.2183084869154623e-01  -5.0972797816424098e-01  -4.2496642998169459e-01  1.4834490461147842e+00  3.1799157325810443e-02  1.1600642754950419e+00  -8.2629965006478359e-02  1.1874355046455194e-01  -4.3764932927196343e-01  -6.6018164846929539e-01  -5.6158608530920406e-01  -7.4620244482186959e-01  8.0386000188052320e-01  -3.3412411557732119e-01  4.9866768446467771e-02  4.1204181989191969e-03  -7.7603594326111103e-01  -5.9229530569412425e-01  -4.9105873992596288e-01  -3.2048220592723320e-01  -7.0585233507349469e-03  2.1161930178300616e-02  -3.8320155630018438e-01  4.4572356212714004e-01  2.6667074832395793e-01  4.1197983878563806e-02  -4.8340739961671646e-02  -1.7127196180862542e-01  5.5578780226008306e-01  3.4776869063656973e-01  6.2480698765613130e-02  1.4234262852696762e+00  -7.9681756750862892e-02  -1.0451939896398292e+00  -3.7024321593070531e-01  1.1270987941225838e+00  -4.7066091514695241e-01  3.2037509657089258e-01  3.9936267140440962e-02  4.5414219505288711e-01  -3.3348942697783035e-01  8.3609432755799507e-01  8.9660350391348553e-01  -9.4226389060136706e-01  -3.2459712827160320e-01  6.0250360494190980e-01  -7.7314312153487907e-01  -6.0901366888457464e-01  -7.2970601389864864e-01  -3.0426459324677946e-01  -3.2826609101030517e-02  -4.8079092540512358e-01  -7.1913008623335117e-01  1.1512431645445567e+00  -7.7739998603225924e-01  -8.1481157526760861e-01  -1.3117806217075212e-01  3.1602991757695431e-01  1.7912298644078335e+00  2.5250007967741978e-01  1.9266274350326504e+00  1.8821225963340527e+00  1.4938071295689372e+00  2.9365734724290998e-01  -2.4693005882884014e-01  3.6117977099550636e-01  8.3333353081809766e-02  1.6313039407846039e-01  -9.4712040426176480e-01  2.2697132472093758e-02  -2.3927859096186249e-01  2.3668194620587107e-01  -2.4258217852473912e-01  -1.0174193186976839e+00  -3.8561059744697235e-01  -6.2771387889685198e-02  -7.2101824672800663e-01  -6.8787583150107945e-01  -3.5646025230472622e-01  -4.4727272139557178e-01  -4.0521263345823977e-01  6.8799352068825248e-01  -1.7832374325152467e-01  2.1345905178392258e-01  -6.8678294083949964e-01  -6.5016052197834973e-01  2.4323024973040011e-01  -4.2497205055317822e-01  8.3579592018501615e-04  -2.6747839314240590e-01  7.7266689519652842e-01  -5.2997707161823004e-01  -1.9069410288610542e-01  -1.0882083853010920e+00  1.4578213319629660e-01  1.4475951706720536e-01  5.5027435496802779e-01  5.0569619829832890e-01  -7.0785110795344208e-01  1.9062973936584189e+00  2.0520111266753688e-01  1.8059364632254442e+00  1.6667348045049355e+00  1.6163681465613959e+00  -3.0313648988117575e-01  -4.7195864568228285e-01  1.7860935254897134e-01  -3.8856766475594956e-01  8.9587724923969625e-01  1.2650663303660142e-01  -9.1044930150023939e-01  -3.3633984887280588e-01  -2.9335717487237761e-01  7.3693441989294992e-02  -1.0663126083406300e+00  1.2107185545276782e+00  -2.7285991990651659e-01  -8.5890835242763419e-01  -1.1096713172612189e+00  1.0383401667453587e-01  5.1051289398261235e-01  -2.9165869668757165e-02  9.6172770222270096e-02  4.3867631375856775e-01  -6.2768625137524725e-01  -5.9266720978500465e-01  6.1821316579861318e-01  -4.8797803131138984e-01  -4.7322146118403047e-01  -9.6133233219358116e-01  -3.3535414224298210e-01  6.5273095127962155e-01  -3.5730021305849574e-01  -5.5958866520058166e-02  -8.0298904719941200e-01  1.3089768209740151e+00  1.3299666632611842e-01  1.3160327048753127e+00  5.4609091026027590e-01  -6.5394248468352756e-01  -5.2958695761488261e-01  -3.3627423812459034e-01  -7.3893429802193455e-01  -6.7650089194276486e-01  2.8664752170936636e-01  9.8692243140897057e-02  3.4234016599417211e-01  -2.8513462136120091e-02  -9.6802525209701951e-02  1.2009144680019561e-01  3.6505025136550090e-01  -6.0133237773498172e-01  -3.0496456244966119e-01  2.0289809217412741e-01  5.8435057938327567e-02  -1.5739285807454823e-01  7.4042252161145850e-02  -3.2328872167624512e-01  -3.3323966363240526e-01  -3.2654281250260980e-01  -6.7037528142319780e-01  -3.4380014830661720e-01  1.6992535340730577e+00  -3.8727658517475749e-01  -1.2523296545028836e-02  -7.1905036983924719e-01  1.7450614625647634e-02  -5.9113154292386075e-02  6.1998409749955175e-01  1.1734814240656428e+00  2.9502994426472140e-01  -4.9085907802854725e-02  2.5702344728493648e-01  2.1450106662696317e-01  -7.8289812736721087e-01  -8.4049444825965969e-01  -4.9004800365141549e-01  3.2494835881620693e-01  4.0852342939349845e-01  -3.8156702156325412e-01  9.5574121073887053e-01  1.3126520495348937e+00  1.2030405359206159e-01  1.67953