<?xml version="1.0"?>
<VTKFile type="UnstructuredGrid"  version="0.1"  >
<UnstructuredGrid>
<Piece  NumberOfPoints="5712" NumberOfCells="10893">
<Points>
<DataArray  type="Float64"  NumberOfComponents="3"  format="ascii">0 0 0  0 0.41 0  2.2 0 0  2.2 0.41 0  0.2 0.25 0  0.25 0.2 0  0.2 0.15 0  0.15 0.2 0  0 0.3904761904762147 0  0 0.3709523809524729 0  0 0.3514285714286954 0  0 0.3319047619049458 0  0 0.3123809523811823 0  0 0.2928571428574404 0  0 0.2733333333336768 0  0 0.2538095238099349 0  0 0.2342857142861567 0  0 0.2147619047624078 0  0 0.1952380952385999 0  0 0.1757142857147328 0  0 0.1561904761908952 0  0 0.1366666666670465 0  0 0.1171428571431906 0  0 0.09761904761931661 0  0 0.0780952380954425 0  0 0.05857142857161174 0  0 0.03904761904773757 0  0 0.01952380952386334 0  0.01986745845578998 0 0  0.03982462845278956 0 0  0.05987191195217309 0 0  0.0800097046343772 0 0  0.1002384394563812 0 0  0.1205585077310739 0 0  0.1409703274044529 0 0  0.1614743126654433 0 0  0.1820708739963059 0 0  0.2027604497544275 0 0  0.2235434355718665 0 0  0.2444202633435119 0 0  0.265391361068545 0 0  0.2864571529028895 0 0  0.3076180592107884 0 0  0.3288745151942862 0 0  0.3502269459367295 0 0  0.3716757933139423 0 0  0.3932214934733583 0 0  0.4148644812710909 0 0  0.4366051859408088 0 0  0.4584440653716539 0 0  0.48038154995608 0 0  0.5024180900849111 0 0  0.5245541321026944 0 0  0.5467901197490906 0 0  0.5691265226973262 0 0  0.5915637755827025 0 0  0.614102339850345 0 0  0.636742674167927 0 0  0.6594852330945143 0 0  0.6823304884387933 0 0  0.7052788907288091 0 0  0.7283309147437839 0 0  0.751487030986726 0 0  0.7747477057419434 0 0  0.7981134011315298 0 0  0.821584610595033 0 0  0.8451617959659341 0 0  0.8688454391891771 0 0  0.8926360178861791 0 0  0.9165340281873645 0 0  0.9405399372917173 0 0  0.9646542424736072 0 0  0.9888774365267383 0 0  1.013210007824441 0 0  1.037652440378865 0 0  1.06220524733373 0 0  1.086868914509785 0 0  1.111643945154348 0 0  1.136530838720734 0 0  1.161530116277625 0 0  1.186642266933783 0 0  1.211867807739771 0 0  1.237207251805963 0 0  1.26266110764717 0 0  1.288229902058941 0 0  1.313914143782356 0 0  1.339714360040014 0 0  1.36563107331828 0 0  1.391664802767304 0 0  1.417816093074858 0 0  1.444085461454821 0 0  1.470473442759746 0 0  1.496980573539167 0 0  1.523607398041112 0 0  1.550354449227912 0 0  1.577222271446548 0 0  1.60421140927435 0 0  1.631322413213628 0 0  1.658555830029694 0 0  1.685912218634225 0 0  1.713392126884173 0 0  1.740996123438425 0 0  1.768724751279777 0 0  1.796578588883932 0 0  1.824558192783585 0 0  1.852664140769835 0 0  1.880896988683294 0 0  1.909257322654582 0 0  1.93774570990443 0 0  1.966362727809846 0 0  1.995108970713317 0 0  2.023985006033532 0 0  2.052991427225145 0 0  2.082128822851723 0 0  2.111397799134646 0 0  2.140798904430552 0 0  2.170332790993664 0 0  2.2 0.02928571428565775 0  2.2 0.05857142857131794 0  2.2 0.08785714285694929 0  2.2 0.1171428571425731 0  2.2 0.1464285714282011 0  2.2 0.1757142857138497 0  2.2 0.2049999999994743 0  2.2 0.2342857142852724 0  2.2 0.2635714285710462 0  2.2 0.2928571428568132 0  2.2 0.3221428571426234 0  2.2 0.3514285714283903 0  2.2 0.3807142857142005 0  2.170332790993718 0.41 0  2.140798904430656 0.41 0  2.111397799134855 0.41 0  2.082128822859404 0.41 0  2.052991427232898 0.41 0  2.023985006041361 0.41 0  1.99510897072121 0.41 0  1.966362727817755 0.41 0  1.937745709912357 0.41 0  1.90925732266254 0.41 0  1.880896988691295 0.41 0  1.852664140777879 0.41 0  1.824558192791673 0.41 0  1.79657858889206 0.41 0  1.768724751287952 0.41 0  1.740996123446639 0.41 0  1.713392126892427 0.41 0  1.685912218642533 0.41 0  1.658555830038071 0.41 0  1.631322413222075 0.41 0  1.604211409282859 0.41 0  1.577222271455122 0.41 0  1.55035444923655 0.41 0  1.523607398049813 0.41 0  1.496980573547932 0.41 0  1.470473442768574 0.41 0  1.444085461463712 0.41 0  1.417816093083807 0.41 0  1.391664802776313 0.41 0  1.365631073327341 0.41 0  1.339714360049107 0.41 0  1.31391414379148 0.41 0  1.288229902068097 0.41 0  1.262661107656355 0.41 0  1.237207251815179 0.41 0  1.211867807749015 0.41 0  1.186642266943055 0.41 0  1.161530116286924 0.41 0  1.13653083873006 0.41 0  1.111643945163706 0.41 0  1.086868914519036 0.41 0  1.062205247342763 0.41 0  1.037652440387677 0.41 0  1.013210007833036 0.41 0  0.9888774365351134 0.41 0  0.9646542424817568 0.41 0  0.9405399372996428 0.41 0  0.916534028195068 0.41 0  0.8926360178936621 0.41 0  0.8688454391964415 0.41 0  0.8451617959729809 0.41 0  0.8215846106018625 0.41 0  0.7981134011381465 0.41 0  0.7747477057483507 0.41 0  0.7514870309929218 0.41 0  0.7283309147497725 0.41 0  0.7052788907345926 0.41 0  0.6823304884443711 0.41 0  0.6594852330998913 0.41 0  0.6367426741731019 0.41 0  0.6141023398553211 0.41 0  0.5915637755874821 0.41 0  0.5691265227019089 0.41 0  0.5467901197534788 0.41 0  0.5245541321068876 0.41 0  0.5024180900889137 0.41 0  0.4803815499598949 0.41 0  0.458444065375283 0.41 0  0.4366051859442526 0.41 0  0.4148644812743503 0.41 0  0.3932214934764355 0.41 0  0.3716757933168389 0.41 0  0.3502269459394474 0.41 0  0.3288745151968251 0.41 0  0.3076180592131517 0.41 0  0.2864571529050777 0.41 0  0.2653913610705745 0.41 0  0.2444202633453989 0.41 0  0.2235434355736121 0.41 0  0.202760449756034 0.41 0  0.1820708739977555 0.41 0  0.1614743126667344 0.41 0  0.140970327405586 0.41 0  0.120558507732039 0.41 0  0.1002384394571796 0.41 0  0.08000970463500767 0.41 0  0.05987191195264252 0.41 0  0.03982462845310097 0.41 0  0.01986745845594617 0.41 0  0.2009941093832422 0.2499901164885035 0  0.2019878257548352 0.2499604698613656 0  0.2029807562584742 0.2499110718390977 0  0.2039725083485626 0.2498419419507366 0  0.2049626899453778 0.2497531075261239 0  0.2059509095900689 0.2496446036851018 0  0.2069367765994233 0.2495164733236293 0  0.2079199012203332 0.2493687670968211 0  0.208899894783849 0.2492015433989262 0  0.209876369858873 0.2490148683402368 0  0.2108489404052936 0.2488088157209575 0  0.2118172219266183 0.248583467002027 0  0.2127808316219855 0.248338911272912 0  0.2137393885375067 0.2480752452163837 0  0.2146925137168532 0.2477925730703012 0  0.2156398303510693 0.247491006586403 0  0.2165809639275547 0.2471706649861239 0  0.2175155423781385 0.2468316749134561 0  0.2184431962261471 0.2464741703848905 0  0.2193635587324768 0.2460982927364335 0  0.2202762660405913 0.2457041905677276 0  0.2211809573203641 0.2452920196833053 0  0.2220772749107273 0.2448619430309942 0  0.2229648644610677 0.2444141306374986 0  0.2238433750713457 0.2439487595411649 0  0.2247124594307593 0.2434660137220228 0  0.2255717739550953 0.2429660840290282 0  0.2264209789225549 0.2424491681046155 0  0.227259738608055 0.2419154703065648 0  0.2280877214159585 0.2413652016272072 0  0.2289046000111568 0.2407985796100187 0  0.2297100514485014 0.2402158282636004 0  0.2305037573004443 0.2396171779731418 0  0.2312854037829426 0.2390028654093291 0  0.2320546818795267 0.2383731334347658 0  0.2328112874634348 0.2377282310079845 0  0.2335549214178666 0.2370684130850081 0  0.2342852897542382 0.2363939405185524 0  0.23500210372839 0.2357050799549172 0  0.2357050799547543 0.2350021037285561 0  0.236393940518396 0.2342852897544042 0  0.2370684130848552 0.2335549214180355 0  0.2377282310078377 0.2328112874636036 0  0.2383731334346237 0.2320546818796969 0  0.2390028654091947 0.2312854037831102 0  0.2396171779730177 0.2305037573006055 0  0.2402158282634863 0.2297100514486559 0  0.2407985796099098 0.2289046000113105 0  0.2413652016271038 0.2280877214161108 0  0.2419154703064672 0.2272597386082051 0  0.2424491681045289 0.2264209789226942 0  0.2429660840289533 0.2255717739552211 0  0.2434660137219522 0.2247124594308835 0  0.2439487595410967 0.2238433750714713 0  0.2444141306374335 0.2229648644611936 0  0.2448619430309386 0.2220772749108404 0  0.2452920196832561 0.2211809573204692 0  0.2457041905676833 0.2202762660406911 0  0.2460982927363924 0.2193635587325747 0  0.246474170384854 0.2184431962262392 0  0.2468316749134214 0.2175155423782314 0  0.2471706649860917 0.216580963927646 0  0.2474910065863757 0.215639830351152 0  0.2477925730702761 0.2146925137169349 0  0.2480752452163603 0.2137393885375889 0  0.2483389112728914 0.2127808316220633 0  0.248583467002012 0.2118172219266803 0  0.2488088157209458 0.2108489404053462 0  0.2490148683402261 0.2098763698589259 0  0.249201543398917 0.2088998947838999 0  0.2493687670968142 0.2079199012203759 0  0.2495164733236233 0.2069367765994661 0  0.2496446036850975 0.205950909590105 0  0.2497531075261207 0.2049626899454101 0  0.2498419419507343 0.2039725083485922 0  0.2499110718390968 0.2029807562584889 0  0.2499604698613655 0.2019878257548365 0  0.2499901164885035 0.2009941093832422 0  0.2499901164885035 0.1990058906167579 0  0.2499604698613656 0.1980121742451648 0  0.2499110718390977 0.1970192437415259 0  0.2498419419507366 0.1960274916514374 0  0.2497531075261239 0.1950373100546222 0  0.2496446036851018 0.1940490904099311 0  0.2495164733236293 0.1930632234005767 0  0.2493687670968211 0.1920800987796668 0  0.2492015433989262 0.191100105216151 0  0.2490148683402368 0.190123630141127 0  0.2488088157209575 0.1891510595947065 0  0.248583467002027 0.1881827780733817 0  0.248338911272912 0.1872191683780146 0  0.2480752452163837 0.1862606114624933 0  0.2477925730703012 0.1853074862831468 0  0.247491006586403 0.1843601696489307 0  0.2471706649861239 0.1834190360724454 0  0.2468316749134561 0.1824844576218615 0  0.2464741703848905 0.181556803773853 0  0.2460982927364335 0.1806364412675232 0  0.2457041905677276 0.1797237339594087 0  0.2452920196833053 0.1788190426796359 0  0.2448619430309942 0.1779227250892727 0  0.2444141306374986 0.1770351355389324 0  0.2439487595411649 0.1761566249286543 0  0.2434660137220228 0.1752875405692407 0  0.2429660840290282 0.1744282260449047 0  0.2424491681046155 0.1735790210774451 0  0.2419154703065648 0.172740261391945 0  0.2413652016272072 0.1719122785840415 0  0.2407985796100187 0.171095
[...]
<PointData  Scalars="f_19"> 
<DataArray  type="Float64"  Name="f_19"  format="ascii">4.4997927390220321e-01  5.9081296751934853e-01  0.0000000000000000e+00  0.0000000000000000e+00  -6.6104530879848178e-01  -5.1362939297548182e-01  -1.2148205886888339e+00  1.9970669145412108e+00  5.9095431881022975e-01  5.9513823980430447e-01  6.0749027322011806e-01  6.3036878098860993e-01  6.6504214846420573e-01  7.0891776319909650e-01  7.5795064100640297e-01  8.0427759362066265e-01  8.3950459337738381e-01  8.5381010969716731e-01  8.4179897502771250e-01  8.0447655014315278e-01  7.4661201674329547e-01  6.7772253671313898e-01  6.0922048563783915e-01  5.4887477419676078e-01  5.0253474876468696e-01  4.7184748146457439e-01  4.5524401026307149e-01  4.4999323137769537e-01  4.4905953138735610e-01  4.4652113700219287e-01  4.4084186924556595e-01  4.3022299607396758e-01  4.1256804225001009e-01  3.8576867381415092e-01  3.4857830737794637e-01  3.0135862247398509e-01  2.4654637137779661e-01  1.8826881905148329e-01  1.3215365634180712e-01  8.3761044762510478e-02  4.5850403513086703e-02  2.0167874628992232e-02  7.5588333128065897e-03  7.9438512296069602e-03  1.9946901946382815e-02  4.0051945077538634e-02  7.8146392511838164e-02  1.2657964783088710e-01  1.8564733289526905e-01  2.4900921703258666e-01  3.1441318712928767e-01  3.6978351507789842e-01  4.0961559268529968e-01  4.2938395836215243e-01  4.2537122013210399e-01  3.9835859664552697e-01  3.5432427373294634e-01  3.0231099733616490e-01  2.5365875037783348e-01  2.1081853844119813e-01  1.7867104898910571e-01  1.4945606392322699e-01  1.2158227258936247e-01  1.0073517133310231e-01  9.8172779220342760e-02  1.1824066406496050e-01  1.6256912668299672e-01  2.1740519127380245e-01  2.6817110947709816e-01  3.0609757585871555e-01  3.2474306545764486e-01  3.2520480371542215e-01  3.1293438496726644e-01  2.8944135640692714e-01  2.5808038955261581e-01  2.1390810510375621e-01  1.6388674771911738e-01  1.0431800370329344e-01  4.3179614872521629e-02  -1.2793016786430836e-03  -1.0323951548297228e-02  1.6287483455646925e-02  7.4318059538893422e-02  1.4331065554295030e-01  2.0320671161884463e-01  2.4376371665988747e-01  2.6468165847423852e-01  2.6326962748124971e-01  2.4300276276919844e-01  2.0454510061178083e-01  1.5397022705130103e-01  9.0865138527748981e-02  2.7766851691184105e-02  -1.8027930494951633e-02  -4.6326847054458595e-02  -4.4217938870632863e-02  -1.5910599827151255e-02  2.8491081117211513e-02  7.8516669899246605e-02  1.2541013765350320e-01  1.5712581036983780e-01  1.6925073065580315e-01  1.6597637889500219e-01  1.4201469825377563e-01  1.0149915200587627e-01  5.4001673671926632e-02  5.9280085472302713e-05  -4.5227135552059226e-02  -7.7499630936218575e-02  -8.3332448667539596e-02  -6.6529848267314909e-02  -3.5598089921982976e-02  3.2060076928890407e-03  3.2542263602640321e-02  4.7885394152085793e-02  4.6236789421613460e-02  2.9876875773778139e-02  0.0000000000000000e+00  0.0000000000000000e+00  0.0000000000000000e+00  0.0000000000000000e+00  0.0000000000000000e+00  0.0000000000000000e+00  0.0000000000000000e+00  0.0000000000000000e+00  0.0000000000000000e+00  0.0000000000000000e+00  0.0000000000000000e+00  0.0000000000000000e+00  0.0000000000000000e+00  -1.7309739119891147e-02  -2.1107480799790891e-02  -8.4616677052565242e-03  2.1715991526941744e-02  5.8281896343303684e-02  9.4924467168238130e-02  1.2574823977837807e-01  1.4245520484768737e-01  1.4469689018525203e-01  1.3157541522524902e-01  9.9878069559878782e-02  6.2398959306277313e-02  1.8248164080200378e-02  -2.1736082246079664e-02  -4.6015111722194184e-02  -4.6564309144562666e-02  -2.3325186865078756e-02  1.9769549924571982e-02  7.3623519748213101e-02  1.2514764643144899e-01  1.6974282120496953e-01  1.9932683391756509e-01  2.1425342953667362e-01  2.0526981018544418e-01  1.8432450311329096e-01  1.4027361394954743e-01  8.4783779848694493e-02  3.1654505917986644e-02  -1.2662976681233954e-02  -3.1095514081872274e-02  -1.5930679102040282e-02  3.1846362878740771e-02  9.8934666684498546e-02  1.7211791941324642e-01  2.3787436330571718e-01  2.8505978681266503e-01  3.1494113390978334e-01  3.2591042387413799e-01  3.1778050690789517e-01  2.7799011416639957e-01  2.2104469987724623e-01  1.4725771108225721e-01  7.7885864204231547e-02  3.7934435306986772e-02  3.8903701992872616e-02  6.4687735040659167e-02  1.0859401546112139e-01  1.5394616759819599e-01  1.9823283896564639e-01  2.3555044000862624e-01  2.6870778207404861e-01  2.9604300807686235e-01  3.1916216741686732e-01  3.3691422417944505e-01  3.4593430062216329e-01  3.4141319089684619e-01  3.2302316879081894e-01  2.9013521986248975e-01  2.4752877240305793e-01  2.0054892106697475e-01  1.5455628225284043e-01  1.1106529301316045e-01  7.9140114719260857e-02  6.1727555388185355e-02  6.2341355799277728e-02  7.8362948821591033e-02  1.0891143674147281e-01  1.4254879547726407e-01  1.7639301197024912e-01  2.0217591468927792e-01  2.2341502388207166e-01  2.4053574126460212e-01  2.5435848192328087e-01  2.6756247364558255e-01  2.8376810837062227e-01  3.0224876181378685e-01  3.2705488089569479e-01  3.5672683924976506e-01  3.9033241332402879e-01  4.2710576092930824e-01  4.6266576312687985e-01  4.9538948664802257e-01  5.2302569626225370e-01  5.4533756221178964e-01  5.6117616506274248e-01  5.7362013516777677e-01  5.8121574549545962e-01  5.8719457845766077e-01  5.8937249256503388e-01  -6.4850969558499594e-01  -6.3549311381481444e-01  -6.2212050250865336e-01  -6.0844581341927695e-01  -5.9450484749476418e-01  -5.8031794221749200e-01  -5.6617437789605862e-01  -5.5204207662140403e-01  -5.3811173072482887e-01  -5.2437853453484251e-01  -5.1090752369467607e-01  -4.9760745956704217e-01  -4.8491738066303447e-01  -4.7239522325733868e-01  -4.6023978845869901e-01  -4.4862377349770599e-01  -4.3743563697458399e-01  -4.2679440186260459e-01  -4.1656929220697014e-01  -4.0687741013061629e-01  -3.9769142624615589e-01  -3.8903898215292737e-01  -3.8074811278894888e-01  -3.7286255199506013e-01  -3.6546111925816838e-01  -3.5842916959809940e-01  -3.5181386240919943e-01  -3.4552214802039266e-01  -3.3958504608200013e-01  -3.3390783716633066e-01  -3.2857118236748295e-01  -3.2348457757319105e-01  -3.1862485440792959e-01  -3.1402932709887577e-01  -3.0970082320394593e-01  -3.0561385000526964e-01  -3.0179429928895946e-01  -2.9827685110331070e-01  -2.9504195306375952e-01  -2.9214218136586201e-01  -2.8956547914339265e-01  -2.8736638332883824e-01  -2.8554292083028793e-01  -2.8415845978583570e-01  -2.8319483463586875e-01  -2.8262883092744745e-01  -2.8261785809397100e-01  -2.8309422430414860e-01  -2.8391874262102923e-01  -2.8534565035376086e-01  -2.8715115551732073e-01  -2.8952638624519844e-01  -2.9234424495103173e-01  -2.9564029354492793e-01  -2.9939661247962374e-01  -3.0361886545758204e-01  -3.0827234422642236e-01  -3.1346480437613938e-01  -3.1909045197790969e-01  -3.2515730310542323e-01  -3.3164633071387911e-01  -3.3861305474290970e-01  -3.4598375147777710e-01  -3.5381952558377200e-01  -3.6205621612542249e-01  -3.7076057545880131e-01  -3.7983129256682685e-01  -3.8937440571213799e-01  -3.9925681042851285e-01  -4.0949601769713079e-01  -4.2017647425114346e-01  -4.3115910234001265e-01  -4.4238206784447509e-01  -4.5391813474178727e-01  -4.6561304171133588e-01  -4.7751727576603475e-01  -4.8951489921703312e-01  -5.0158455455271056e-01  -5.2569242603534305e-01  -5.3762964190667784e-01  -5.4932584959344111e-01  -5.6088179886590850e-01  -5.7213876507214967e-01  -5.8308733310348515e-01  -5.9356670462026440e-01  -6.0370632713250960e-01  -6.1330578814417014e-01  -6.2245169984066262e-01  -6.3099693946333779e-01  -6.3903790283166417e-01  -6.4651302656980592e-01  -6.5334167889778405e-01  -6.5964272961280379e-01  -6.6533156193055487e-01  -6.7049901267951406e-01  -6.7507561110820935e-01  -6.7915943213668106e-01  -6.8278937326477540e-01  -6.8587594725650070e-01  -6.8848545331757294e-01  -6.9086909560854659e-01  -6.9276591461474213e-01  -6.9446346714389118e-01  -6.9583103340797037e-01  -6.9702359013498827e-01  -6.9805058140616449e-01  -6.9900084303741861e-01  -6.9995746418934679e-01  -7.0084186667948689e-01  -7.0186268948287966e-01  -7.0296572261159151e-01  -7.0427255931632060e-01  -7.0582029290828319e-01  -7.0765210598242334e-01  -7.0982822799294976e-01  -7.1238708784128124e-01  -7.1539569001324388e-01  -7.1886492383838774e-01  -7.2284811874241384e-01  -7.2733464442848161e-01  -7.3238903675073519e-01  -7.3801380291975327e-01  -7.4418037539690152e-01  -7.5088653218976142e-01  -7.5822270674064685e-01  -7.6607919603420838e-01  -7.7452573324365181e-01  -7.8350641132594057e-01  -7.9298113557909466e-01  -8.0309549261300306e-01  -8.1368594985688858e-01  -8.2480426383071570e-01  -8.3652275810197541e-01  -8.4868425819272986e-01  -8.6150118791567543e-01  -8.7474141788643867e-01  -8.8848167432500869e-01  -9.0295036860476274e-01  -9.1768860823652854e-01  -9.3288812333372417e-01  -9.4860200118385452e-01  -9.6480204309810247e-01  -9.8128192715817364e-01  -9.9816735688037816e-01  -1.0153064265406571e+00  -1.0327679704953809e+00  -1.0502306852832470e+00  -1.0677103391983014e+00  -1.0853313876115154e+00  -1.1027437988236248e+00  -1.1201630414657147e+00  -1.1373990689260378e+00  -1.1540218312002597e+00  -1.1700902304928951e+00  -1.1856986515090306e+00  -1.2007358722663095e+00  -1.2280026465578784e+00  -1.2401297304813164e+00  -1.2511367214768254e+00  -1.2607284280164999e+00  -1.2688509631490337e+00  -1.2754012945373912e+00  -1.2803780356858996e+00  -1.2836658414279936e+00  -1.2849477825435254e+00  -1.2842950475407966e+00  -1.2814404857904946e+00  -1.2767285387657694e+00  -1.2695703709507600e+00  -1.2603820482970562e+00  -1.2486644146724932e+00  -1.2342804570859367e+00  -1.2176330142919363e+00  -1.1984446235385389e+00  -1.1768534105534216e+00  -1.1524334742197169e+00  -1.1256281374767927e+00  -1.0960295162450360e+00  -1.0638108630706893e+00  -1.0292088990790671e+00  -9.9193837534213847e-01  -9.5237066847383667e-01  -9.0976169702722642e-01  -8.6488601528132469e-01  -8.1777483474975154e-01  -7.6814646743367576e-01  -7.1639651827041073e-01  -6.6222930453917594e-01  -6.0612578838149200e-01  -5.4766400196941412e-01  -4.8764298809148782e-01  -4.2539628425787751e-01  -3.6168247231012007e-01  -2.9603982066622930e-01  -2.2928405273238583e-01  -1.6086394203782370e-01  -9.0970555467782613e-02  -2.0376334512296174e-02  5.0975619501194946e-02  1.2375984605889810e-01  1.9708683015844350e-01  2.7064132215947062e-01  3.4490316967973450e-01  4.1921601383298640e-01  4.9339994117170438e-01  5.6788090990788742e-01  6.4179744989270893e-01  7.1559147881454266e-01  7.8849932076716744e-01  8.6090882352468900e-01  9.3204025214326203e-01  1.0024902678091603e+00  1.0716141209913121e+00  1.1392000302947716e+00  1.2052040745564156e+00  1.2696969852359627e+00  1.3322541364742917e+00  1.3924889929732285e+00  1.4510144960310392e+00  1.5069569156834373e+00  1.5606851637879398e+00  1.6116389971338811e+00  1.6601144490201072e+00  1.7059603181024912e+00  1.7484180524181008e+00  1.7877971882754304e+00  1.8249857939439658e+00  1.8580794920180588e+00  1.8881629919548863e+00  1.9151134077655703e+00  1.9381097609251110e+00  1.9585830447707511e+00  1.9748208698583898e+00  1.9876818132544680e+00  2.0028615494582525e+00  2.0051553445327412e+00  2.0038881395175756e+00  1.9991476556668173e+00  1.9908087412437834e+00  1.9784795782244591e+00  1.9630520166149086e+00  1.9446342915573946e+00  1.9225937350746582e+00  1.8971244421036941e+00  1.8685462600886769e+00  1.8367742275005394e+00  1.8021856557723128e+00  1.7644656265495213e+00  1.7241043792623936e+00  1.6808166799369810e+00  1.6351758548238062e+00  1.5868853449325040e+00  1.5365669231019183e+00  1.4838949341653609e+00  1.4294081468570912e+00  1.3727438332059514e+00  1.3145825873310766e+00  1.2546909883931472e+00  1.1936547087767762e+00  1.1311344052861223e+00  1.0676945909002082e+00  1.0032262323938488e+00  9.3829402449760602e-01  8.7254718246467666e-01  8.0632549602539783e-01  7.4017092621050373e-01  6.7374946576841721e-01  6.0744440817589462e-01  5.4136568882433811e-01  4.7572454869599040e-01  4.1062750420137284e-01  3.4621237448177916e-01  2.8296457375133410e-01  2.2046135502961406e-01  1.5938646681501636e-01  9.9218941890471687e-02  4.0631604255021180e-02  -1.5995748711529059e-02  -7.1399774345919750e-02  -1.2477459776716827e-01  -1.7644340133084688e-01  -2.2626841475061882e-01  -2.7360322284498001e-01  -3.1887330219212884e-01  -3.6196120870719906e-01  -4.0300802387056839e-01  -4.4140075362464398e-01  -4.7768187179968080e-01  -5.1119123914022768e-01  -5.4246912787471990e-01  -5.7108889784219807e-01  -5.9743279525106641e-01  -6.2114902689652651e-01  -6.4259213932923420e-01  -6.6135419983344579e-01  -6.7772062371198361e-01  -6.9171214782776280e-01  -7.0351895317376401e-01  -7.1300790851398643e-01  -7.2023992779225199e-01  -7.2544760581477097e-01  -7.2887226642684366e-01  -7.3026978445139612e-01  -7.2937865894928455e-01  -7.2728602652981522e-01  -7.2343791720829942e-01  -7.1809685935042822e-01  -7.1132815645901271e-01  -7.0330551126519070e-01  -6.9413878835029608e-01  -6.8395362120179459e-01  -6.7293560038358458e-01  -4.0269131502837990e-01  -2.0593860768616825e-02  -8.1891534476679995e-01  -2.8480525030925585e-01  1.4350884090049151e-01  3.1900351855329900e-01  6.3867215704727109e-01  1.0164083377599871e+00  9.0480598176776705e-01  3.9852377797173300e-01  4.5143980270833321e-02  -1.6713042545493076e-01  -1.2789445032983393e-01  -5.4099249215217617e-02  -8.6958158793340101e-01  -7.7273703624091472e-01  -3.8288441261948336e-01  3.8601478043060473e-02  5.0813783730565398e-01  1.0294763105080187e+00  1.4209211234772026e+00  1.2437137706263017e+00  5.3686373747873639e-01  -1.0569089229525005e-02  -4.2735242658201683e-01  -2.6163870156328117e-01  -7.4250671513976085e-01  -4.2230576952610027e-01  7.2452641274025592e-02  4.7210147456143042e-01  -6.7290302002982261e-01  -7.0270396334213325e-01  -2.6696959128116060e-01  -2.8963628478883330e-01  -3.1206507630516522e-01  -6.1744294774525577e-01  9.1640033389491138e-01  2.2815602667062679e-01  -3.2988604271107519e-01  9.9536666292873388e-01  1.5253103322908923e+00  1.7420584106332453e+00  1.5877320221949398e+00  -7.0089719012045570e-01  -2.5793411920864406e-01  -1.5486416155998103e-01  -7.7800429067380794e-01  -3.6363431659766349e-01  -5.3744203809598040e-03  -1.4827907541637724e-02  -4.5644979211914910e-01  -3.3613331571651806e-01  -1.7924131639601101e-02  1.2261146804953666e+00  -3.2342215140669726e-02  -2.9075295508875965e-01  -2.8789132654243060e-01  -3.0928038617183545e-01  -7.0229412524502621e-01  -6.7916640811193385e-01  -6.5954065521341654e-01  -4.5338586112135308e-02  -3.4623171811690573e-01  -1.4875932647858529e-02  7.3030478583295122e-01  1.4907592708500825e-01  -3.0645016613986170e-01  -3.5409587902920320e-01  -4.2748262133945952e-01  -5.0483660820356469e-01  2.8069370675143296e-01  -5.5018410670660478e-01  -7.6858163474260510e-01  -6.8552900195526068e-01  1.8363470349686619e+00  1.8963991412765453e+00  1.7138440775594330e+00  1.3415785930220054e+00  -9.2246846737892385e-01  6.5193034324855936e-01  1.5002998942774734e-01  -7.9897271610473031e-01  -9.7106899424785220e-01  -8.6159269086460522e-01  -9.6065239077813347e-01  5.4762382633043692e-02  1.6767615347082769e+00  3.5918210624042535e-01  -1.0810578586611059e+00  -5.8834926707517066e-01  -4.0211901058777516e-01  -4.6700963391983499e-02  2.9224637698890460e-01  -7.1254770657345812e-02  2.6506510108560610e-01  -1.0438415677698816e-01  -6.7255603378459716e-01  -3.1694568987119714e-01  -7.0522301308497359e-01  -6.0727783739801233e-01  -4.7566343602109107e-01  1.4170846690609609e+00  4.0298124885152081e-02  1.0663008738150925e+00  -3.3644155048329866e-01  2.5588191806466243e-01  -1.0001576278701076e+00  -6.8466449972661181e-01  -6.4997841529902634e-01  -7.3446966298215877e-01  9.5692315181817533e-01  -3.0530667930301625e-01  2.3502746468875219e-01  -2.4506280216838769e-01  -6.2896219158997635e-01  -4.2497239703745882e-01  -3.1133580627630397e-01  -2.8837825828540681e-01  1.8234116342673681e-01  -2.3881230443619483e-01  -3.4109843360666137e-01  4.9839822642544890e-01  3.3371804480333833e-01  -1.5258004165576453e-01  1.5237289840757193e-01  -3.1211401068988437e-01  5.4396498193567333e-01  1.4066177157277066e-01  2.2591738640596720e-01  1.5382185828677053e+00  1.2135889053339949e-01  -1.1223893752890481e+00  -3.5637187513722940e-01  1.1393954670340980e+00  -4.0733409335699255e-01  -8.2110111093112084e-03  2.3961514229516637e-01  3.2708057285193154e-01  -2.9740876029187446e-01  7.2127134529512660e-01  8.7366353601862368e-01  -1.6469383455359365e-01  -2.9392981672090202e-01  5.8802906560659984e-01  -6.0868467117565872e-01  -5.1594457045111919e-01  -9.6343594974391822e-01  -1.1879557538657939e-01  1.5102592464913253e-01  -6.2520379985814722e-01  -8.6176336088076644e-01  1.2897477461855396e+00  -7.7468838418341457e-01  -8.2253551603230091e-01  1.9817508217615293e-01  -7.7351235731618964e-02  1.8619966086541229e+00  2.1240782562013805e-01  1.9460384304001523e+00  1.8724920077047380e+00  1.5027403704107867e+00  7.0570637528637334e-02  1.0087896359367017e-01  3.8852634201257663e-01  2.2151043955276384e-01  2.2717893042977241e-01  -1.0772360194448736e+00  4.9953745986517240e-03  -1.7882695624805003e-01  1.1337729195354442e-01  4.9724378955674421e-02  -1.0786142375556604e+00  3.8996889567142978e-02  -1.9157663865693889e-01  -6.0406572928855884e-01  -6.9324472515707036e-01  -3.2160149947527833e-01  -5.2180945289814373e-01  -4.3076188558209572e-01  7.4376644441344142e-01  -1.1603573156136452e-02  7.3620672241046348e-02  -6.6924318750723533e-01  -6.8443370193333553e-01  2.3936668731721233e-01  -3.7343968503793584e-01  1.4176355526194712e-01  1.0313077741276945e-01  8.3120223712771424e-01  -4.5536358894508694e-01  -6.0118814577749195e-02  -1.1976548804809510e+00  9.3204293403719621e-02  2.9125813758641406e-03  6.0895552877783510e-01  6.7853023454235017e-01  -7.0198398884341473e-01  1.9512624280288313e+00  1.6456168639014104e-01  1.7745375039843383e+00  1.6131358068776551e+00  1.7161112155918905e+00  -3.0395094170395015e-01  -5.6491736284506266e-01  3.6151999904139814e-01  -3.9098783175251089e-01  9.1958917825683906e-01  -1.7246145943342167e-01  -9.4366938112864485e-01  -2.2361231164226034e-01  2.8667736049382945e-02  1.3538713275413070e-01  -1.1908572633557826e+00  1.2699533417459388e+00  -2.6202461590550752e-01  -8.7720023970542138e-01  -1.2021812843286086e+00  -2.4913998842615918e-02  5.6338906572576553e-01  4.1207824815409681e-02  4.8211806608063866e-02  4.3190643733859485e-01  -6.8191426232418773e-01  -6.7037838375678449e-01  5.4007053717871367e-01  -6.2574573819178159e-01  -4.6481682358780640e-01  -1.0053451732291219e+00  -3.9465228997733293e-01  7.3495108972142875e-01  -3.2751918592938817e-01  -2.5356632274632161e-02  -6.6616173093279818e-01  1.2762806195727026e+00  8.2421016186439461e-02  1.2268745271702386e+00  6.7414272960658339e-01  -4.7090567691607571e-01  -6.3136892661790478e-01  -3.1234102293618904e-01  -7.2633222936448316e-01  -5.7268363437308833e-01  8.2881433437043864e-02  3.4369965021970522e-01  3.5156166654489052e-01  -5.7670168069789444e-03  -2.8540358613040703e-02  4.2058199438048166e-01  3.6496869130753007e-01  -7.6410372014692485e-01  -2.6915767564742293e-01  2.8448825349492934e-01  1.4823203682031952e-01  3.3843486761578223e-02  -3.6983395383182988e-02  -2.8864825277170908e-01  -3.0152467909740621e-01  -2.8841953282717459e-01  -6.9307811735281966e-01  -3.0635012485625551e-01  1.7522869693460967e+00  -3.1436421470139037e-01  -1.2339360225407660e-01  -7.0545745852632380e-01  -4.0127957532184927e-02  -7.1128234138504345e-02  4.9099984483814124e-01  1.2651779176000733e+00  3.3751368919317687e-01  1.4254228144942116e-01  1.9352465425513703e-02  3.3491962698179767e-01  -6.0900874174809738e-01  -6.8064790581206003e-01  -3.0068284522865513e-01  3.7922039153837339e-01  4.5597090380308419e-01  -5.3272206528596444e-01  1.1102789505546471e+00  1.4436805162652215e+00  2.3265137760581309e-01  1.68569135995