<?xml version="1.0"?>
<VTKFile type="UnstructuredGrid"  version="0.1"  >
<UnstructuredGrid>
<Piece  NumberOfPoints="5712" NumberOfCells="10893">
<Points>
<DataArray  type="Float64"  NumberOfComponents="3"  format="ascii">0 0 0  0 0.41 0  2.2 0 0  2.2 0.41 0  0.2 0.25 0  0.25 0.2 0  0.2 0.15 0  0.15 0.2 0  0 0.3904761904762147 0  0 0.3709523809524729 0  0 0.3514285714286954 0  0 0.3319047619049458 0  0 0.3123809523811823 0  0 0.2928571428574404 0  0 0.2733333333336768 0  0 0.2538095238099349 0  0 0.2342857142861567 0  0 0.2147619047624078 0  0 0.1952380952385999 0  0 0.1757142857147328 0  0 0.1561904761908952 0  0 0.1366666666670465 0  0 0.1171428571431906 0  0 0.09761904761931661 0  0 0.0780952380954425 0  0 0.05857142857161174 0  0 0.03904761904773757 0  0 0.01952380952386334 0  0.01986745845578998 0 0  0.03982462845278956 0 0  0.05987191195217309 0 0  0.0800097046343772 0 0  0.1002384394563812 0 0  0.1205585077310739 0 0  0.1409703274044529 0 0  0.1614743126654433 0 0  0.1820708739963059 0 0  0.2027604497544275 0 0  0.2235434355718665 0 0  0.2444202633435119 0 0  0.265391361068545 0 0  0.2864571529028895 0 0  0.3076180592107884 0 0  0.3288745151942862 0 0  0.3502269459367295 0 0  0.3716757933139423 0 0  0.3932214934733583 0 0  0.4148644812710909 0 0  0.4366051859408088 0 0  0.4584440653716539 0 0  0.48038154995608 0 0  0.5024180900849111 0 0  0.5245541321026944 0 0  0.5467901197490906 0 0  0.5691265226973262 0 0  0.5915637755827025 0 0  0.614102339850345 0 0  0.636742674167927 0 0  0.6594852330945143 0 0  0.6823304884387933 0 0  0.7052788907288091 0 0  0.7283309147437839 0 0  0.751487030986726 0 0  0.7747477057419434 0 0  0.7981134011315298 0 0  0.821584610595033 0 0  0.8451617959659341 0 0  0.8688454391891771 0 0  0.8926360178861791 0 0  0.9165340281873645 0 0  0.9405399372917173 0 0  0.9646542424736072 0 0  0.9888774365267383 0 0  1.013210007824441 0 0  1.037652440378865 0 0  1.06220524733373 0 0  1.086868914509785 0 0  1.111643945154348 0 0  1.136530838720734 0 0  1.161530116277625 0 0  1.186642266933783 0 0  1.211867807739771 0 0  1.237207251805963 0 0  1.26266110764717 0 0  1.288229902058941 0 0  1.313914143782356 0 0  1.339714360040014 0 0  1.36563107331828 0 0  1.391664802767304 0 0  1.417816093074858 0 0  1.444085461454821 0 0  1.470473442759746 0 0  1.496980573539167 0 0  1.523607398041112 0 0  1.550354449227912 0 0  1.577222271446548 0 0  1.60421140927435 0 0  1.631322413213628 0 0  1.658555830029694 0 0  1.685912218634225 0 0  1.713392126884173 0 0  1.740996123438425 0 0  1.768724751279777 0 0  1.796578588883932 0 0  1.824558192783585 0 0  1.852664140769835 0 0  1.880896988683294 0 0  1.909257322654582 0 0  1.93774570990443 0 0  1.966362727809846 0 0  1.995108970713317 0 0  2.023985006033532 0 0  2.052991427225145 0 0  2.082128822851723 0 0  2.111397799134646 0 0  2.140798904430552 0 0  2.170332790993664 0 0  2.2 0.02928571428565775 0  2.2 0.05857142857131794 0  2.2 0.08785714285694929 0  2.2 0.1171428571425731 0  2.2 0.1464285714282011 0  2.2 0.1757142857138497 0  2.2 0.2049999999994743 0  2.2 0.2342857142852724 0  2.2 0.2635714285710462 0  2.2 0.2928571428568132 0  2.2 0.3221428571426234 0  2.2 0.3514285714283903 0  2.2 0.3807142857142005 0  2.170332790993718 0.41 0  2.140798904430656 0.41 0  2.111397799134855 0.41 0  2.082128822859404 0.41 0  2.052991427232898 0.41 0  2.023985006041361 0.41 0  1.99510897072121 0.41 0  1.966362727817755 0.41 0  1.937745709912357 0.41 0  1.90925732266254 0.41 0  1.880896988691295 0.41 0  1.852664140777879 0.41 0  1.824558192791673 0.41 0  1.79657858889206 0.41 0  1.768724751287952 0.41 0  1.740996123446639 0.41 0  1.713392126892427 0.41 0  1.685912218642533 0.41 0  1.658555830038071 0.41 0  1.631322413222075 0.41 0  1.604211409282859 0.41 0  1.577222271455122 0.41 0  1.55035444923655 0.41 0  1.523607398049813 0.41 0  1.496980573547932 0.41 0  1.470473442768574 0.41 0  1.444085461463712 0.41 0  1.417816093083807 0.41 0  1.391664802776313 0.41 0  1.365631073327341 0.41 0  1.339714360049107 0.41 0  1.31391414379148 0.41 0  1.288229902068097 0.41 0  1.262661107656355 0.41 0  1.237207251815179 0.41 0  1.211867807749015 0.41 0  1.186642266943055 0.41 0  1.161530116286924 0.41 0  1.13653083873006 0.41 0  1.111643945163706 0.41 0  1.086868914519036 0.41 0  1.062205247342763 0.41 0  1.037652440387677 0.41 0  1.013210007833036 0.41 0  0.9888774365351134 0.41 0  0.9646542424817568 0.41 0  0.9405399372996428 0.41 0  0.916534028195068 0.41 0  0.8926360178936621 0.41 0  0.8688454391964415 0.41 0  0.8451617959729809 0.41 0  0.8215846106018625 0.41 0  0.7981134011381465 0.41 0  0.7747477057483507 0.41 0  0.7514870309929218 0.41 0  0.7283309147497725 0.41 0  0.7052788907345926 0.41 0  0.6823304884443711 0.41 0  0.6594852330998913 0.41 0  0.6367426741731019 0.41 0  0.6141023398553211 0.41 0  0.5915637755874821 0.41 0  0.5691265227019089 0.41 0  0.5467901197534788 0.41 0  0.5245541321068876 0.41 0  0.5024180900889137 0.41 0  0.4803815499598949 0.41 0  0.458444065375283 0.41 0  0.4366051859442526 0.41 0  0.4148644812743503 0.41 0  0.3932214934764355 0.41 0  0.3716757933168389 0.41 0  0.3502269459394474 0.41 0  0.3288745151968251 0.41 0  0.3076180592131517 0.41 0  0.2864571529050777 0.41 0  0.2653913610705745 0.41 0  0.2444202633453989 0.41 0  0.2235434355736121 0.41 0  0.202760449756034 0.41 0  0.1820708739977555 0.41 0  0.1614743126667344 0.41 0  0.140970327405586 0.41 0  0.120558507732039 0.41 0  0.1002384394571796 0.41 0  0.08000970463500767 0.41 0  0.05987191195264252 0.41 0  0.03982462845310097 0.41 0  0.01986745845594617 0.41 0  0.2009941093832422 0.2499901164885035 0  0.2019878257548352 0.2499604698613656 0  0.2029807562584742 0.2499110718390977 0  0.2039725083485626 0.2498419419507366 0  0.2049626899453778 0.2497531075261239 0  0.2059509095900689 0.2496446036851018 0  0.2069367765994233 0.2495164733236293 0  0.2079199012203332 0.2493687670968211 0  0.208899894783849 0.2492015433989262 0  0.209876369858873 0.2490148683402368 0  0.2108489404052936 0.2488088157209575 0  0.2118172219266183 0.248583467002027 0  0.2127808316219855 0.248338911272912 0  0.2137393885375067 0.2480752452163837 0  0.2146925137168532 0.2477925730703012 0  0.2156398303510693 0.247491006586403 0  0.2165809639275547 0.2471706649861239 0  0.2175155423781385 0.2468316749134561 0  0.2184431962261471 0.2464741703848905 0  0.2193635587324768 0.2460982927364335 0  0.2202762660405913 0.2457041905677276 0  0.2211809573203641 0.2452920196833053 0  0.2220772749107273 0.2448619430309942 0  0.2229648644610677 0.2444141306374986 0  0.2238433750713457 0.2439487595411649 0  0.2247124594307593 0.2434660137220228 0  0.2255717739550953 0.2429660840290282 0  0.2264209789225549 0.2424491681046155 0  0.227259738608055 0.2419154703065648 0  0.2280877214159585 0.2413652016272072 0  0.2289046000111568 0.2407985796100187 0  0.2297100514485014 0.2402158282636004 0  0.2305037573004443 0.2396171779731418 0  0.2312854037829426 0.2390028654093291 0  0.2320546818795267 0.2383731334347658 0  0.2328112874634348 0.2377282310079845 0  0.2335549214178666 0.2370684130850081 0  0.2342852897542382 0.2363939405185524 0  0.23500210372839 0.2357050799549172 0  0.2357050799547543 0.2350021037285561 0  0.236393940518396 0.2342852897544042 0  0.2370684130848552 0.2335549214180355 0  0.2377282310078377 0.2328112874636036 0  0.2383731334346237 0.2320546818796969 0  0.2390028654091947 0.2312854037831102 0  0.2396171779730177 0.2305037573006055 0  0.2402158282634863 0.2297100514486559 0  0.2407985796099098 0.2289046000113105 0  0.2413652016271038 0.2280877214161108 0  0.2419154703064672 0.2272597386082051 0  0.2424491681045289 0.2264209789226942 0  0.2429660840289533 0.2255717739552211 0  0.2434660137219522 0.2247124594308835 0  0.2439487595410967 0.2238433750714713 0  0.2444141306374335 0.2229648644611936 0  0.2448619430309386 0.2220772749108404 0  0.2452920196832561 0.2211809573204692 0  0.2457041905676833 0.2202762660406911 0  0.2460982927363924 0.2193635587325747 0  0.246474170384854 0.2184431962262392 0  0.2468316749134214 0.2175155423782314 0  0.2471706649860917 0.216580963927646 0  0.2474910065863757 0.215639830351152 0  0.2477925730702761 0.2146925137169349 0  0.2480752452163603 0.2137393885375889 0  0.2483389112728914 0.2127808316220633 0  0.248583467002012 0.2118172219266803 0  0.2488088157209458 0.2108489404053462 0  0.2490148683402261 0.2098763698589259 0  0.249201543398917 0.2088998947838999 0  0.2493687670968142 0.2079199012203759 0  0.2495164733236233 0.2069367765994661 0  0.2496446036850975 0.205950909590105 0  0.2497531075261207 0.2049626899454101 0  0.2498419419507343 0.2039725083485922 0  0.2499110718390968 0.2029807562584889 0  0.2499604698613655 0.2019878257548365 0  0.2499901164885035 0.2009941093832422 0  0.2499901164885035 0.1990058906167579 0  0.2499604698613656 0.1980121742451648 0  0.2499110718390977 0.1970192437415259 0  0.2498419419507366 0.1960274916514374 0  0.2497531075261239 0.1950373100546222 0  0.2496446036851018 0.1940490904099311 0  0.2495164733236293 0.1930632234005767 0  0.2493687670968211 0.1920800987796668 0  0.2492015433989262 0.191100105216151 0  0.2490148683402368 0.190123630141127 0  0.2488088157209575 0.1891510595947065 0  0.248583467002027 0.1881827780733817 0  0.248338911272912 0.1872191683780146 0  0.2480752452163837 0.1862606114624933 0  0.2477925730703012 0.1853074862831468 0  0.247491006586403 0.1843601696489307 0  0.2471706649861239 0.1834190360724454 0  0.2468316749134561 0.1824844576218615 0  0.2464741703848905 0.181556803773853 0  0.2460982927364335 0.1806364412675232 0  0.2457041905677276 0.1797237339594087 0  0.2452920196833053 0.1788190426796359 0  0.2448619430309942 0.1779227250892727 0  0.2444141306374986 0.1770351355389324 0  0.2439487595411649 0.1761566249286543 0  0.2434660137220228 0.1752875405692407 0  0.2429660840290282 0.1744282260449047 0  0.2424491681046155 0.1735790210774451 0  0.2419154703065648 0.172740261391945 0  0.2413652016272072 0.1719122785840415 0  0.2407985796100187 0.171095
[...]
<PointData  Scalars="f_19"> 
<DataArray  type="Float64"  Name="f_19"  format="ascii">5.1312589206057746e-01  5.0705792132184357e-01  0.0000000000000000e+00  0.0000000000000000e+00  -8.9767685620651028e-01  -4.4397373111496830e-01  -9.8493265963211218e-01  1.9918929502956295e+00  5.0705126134311085e-01  5.1098807523516709e-01  5.2371563517927899e-01  5.4828341511986622e-01  5.8663336208799732e-01  6.3661408140505371e-01  6.9445482915707335e-01  7.5271099607835112e-01  8.0241867367298647e-01  8.3333039216722493e-01  8.3868226806511470e-01  8.1828715531864404e-01  7.7567654873142799e-01  7.1936618593195090e-01  6.6032642291600507e-01  6.0659405001403199e-01  5.6408526259399883e-01  5.3517400756252176e-01  5.1893599281816871e-01  5.1331571903561712e-01  5.1197152355132280e-01  5.0826140196852065e-01  5.0051684844531708e-01  4.8754201119014839e-01  4.6788639057079479e-01  4.4037224699421429e-01  4.0443113440762929e-01  3.6079658160807798e-01  3.1189141698425971e-01  2.6170720010809917e-01  2.1549236387317805e-01  1.7885958635765148e-01  1.5543057291669357e-01  1.4598615813791155e-01  1.5155816398883934e-01  1.7219379859767206e-01  2.0217479540168654e-01  2.3286551026491170e-01  2.6568243296270766e-01  2.9290485724618870e-01  3.0852356373028089e-01  3.1187866055034369e-01  2.9672601679375676e-01  2.6579518184611883e-01  2.2227813004046876e-01  1.7294825317877463e-01  1.2984255681964757e-01  1.0444059224249531e-01  9.3760152158177540e-02  9.8690060886583997e-02  1.1323404986856829e-01  1.3176419598509398e-01  1.5917421849695845e-01  1.9589206632038114e-01  2.4175881033821775e-01  2.8329369688252193e-01  3.1325929789571766e-01  3.3016900886103223e-01  3.3089262937462677e-01  3.2089377292601512e-01  3.0262350547642025e-01  2.7636407821943682e-01  2.4521727830609780e-01  2.0400222453760714e-01  1.5782366762794814e-01  1.0529286672468485e-01  5.7861977516951234e-02  2.6455639327585045e-02  1.5486325602821153e-02  5.7514022809547108e-02  1.1794814191133794e-01  1.9001707429250309e-01  2.4833818006226052e-01  2.8755385005855649e-01  2.9871605498356857e-01  2.9006196856517136e-01  2.6247819086828161e-01  2.2028379692914360e-01  1.6024259357313933e-01  9.3403894743613422e-02  3.0298960521714859e-02  -1.8944762550285127e-02  -3.9224645034669034e-02  -2.6572411298250703e-02  4.9956619151584414e-03  5.8946795916289096e-02  1.1233803570984939e-01  1.5757990727747917e-01  1.8667200994075275e-01  1.9813415294890477e-01  1.8904786008241750e-01  1.6213343945048117e-01  1.2328773384498526e-01  7.3292356826750588e-02  2.0104579710088815e-02  -2.1544078237836325e-02  -4.8944084451500815e-02  -5.1439911476907796e-02  -2.8541661293171858e-02  1.1975250613520300e-02  5.6786070654384992e-02  9.7593829627533171e-02  1.2908402622971182e-01  1.4368271813518227e-01  1.4334691131612273e-01  1.2914578298623297e-01  1.0176663614490709e-01  6.5197382914667076e-02  2.9991728931863363e-02  0.0000000000000000e+00  0.0000000000000000e+00  0.0000000000000000e+00  0.0000000000000000e+00  0.0000000000000000e+00  0.0000000000000000e+00  0.0000000000000000e+00  0.0000000000000000e+00  0.0000000000000000e+00  0.0000000000000000e+00  0.0000000000000000e+00  0.0000000000000000e+00  0.0000000000000000e+00  -7.1732461837869417e-03  -2.6182315488056301e-02  -5.2561460130313202e-02  -7.6151604390787123e-02  -9.1407604361827779e-02  -8.6139451692631056e-02  -6.1877066936971183e-02  -2.2675358508277968e-02  2.6774681369057834e-02  7.0257113308416649e-02  1.0990243298461538e-01  1.3539631103941863e-01  1.4164245065455497e-01  1.3338739598099900e-01  1.0692398724504601e-01  6.9953624154046559e-02  2.6160091433368414e-02  -1.2244164738823870e-02  -4.0152249787519252e-02  -4.5735463574841616e-02  -2.2176759880878017e-02  2.1678062407302728e-02  7.9070493425117849e-02  1.3841597546912585e-01  1.8988526910801704e-01  2.2296597910402621e-01  2.4319514294100969e-01  2.4004155517389583e-01  2.1635472951833873e-01  1.7341961938499137e-01  1.1398137727079614e-01  4.9808504033409043e-02  -2.7088236784154540e-03  -2.7060599408198667e-02  -1.0679653699119490e-02  3.5225399760262566e-02  1.0364511101662667e-01  1.6786788982452042e-01  2.2385284780669293e-01  2.6766491177132196e-01  3.0268886253203725e-01  3.2139470273497683e-01  3.2943905772035259e-01  3.1806754100888268e-01  2.7937041795538647e-01  2.2322269851740476e-01  1.5594538889241044e-01  1.0435995983974714e-01  7.5433707177377615e-02  7.7588794141167358e-02  9.9974054077429736e-02  1.3353688190733284e-01  1.7186616376172636e-01  2.0816298004885425e-01  2.4482962279749942e-01  2.8197303368734716e-01  3.2129687058093487e-01  3.5741858418888972e-01  3.8686357601760585e-01  3.9916135641976069e-01  3.9134204950326101e-01  3.6681797917112796e-01  3.2599770312808135e-01  2.7411623510344141e-01  2.1292502057607549e-01  1.5845682218138626e-01  1.0973730840129750e-01  7.5309219811843062e-02  5.7272195100599839e-02  5.4134809719446467e-02  6.1468414253461973e-02  7.5061735291808651e-02  9.2399530743019390e-02  1.1256149835821555e-01  1.3863265928812993e-01  1.6736135924945561e-01  2.0347633369179019e-01  2.4434093571265525e-01  2.8743858136708517e-01  3.3360038379593365e-01  3.7660086460048708e-01  4.1466089757642499e-01  4.4551446444763959e-01  4.6896042901994117e-01  4.8406197397813600e-01  4.9473459581457313e-01  5.0029275379085092e-01  5.0456883925584373e-01  5.0586959330187142e-01  -8.8125046957507658e-01  -8.6427387672533240e-01  -8.4689743577605825e-01  -8.2916764974780155e-01  -8.1114041207317700e-01  -7.9282412991771178e-01  -7.7454669040780999e-01  -7.5626570593341114e-01  -7.3820507967464521e-01  -7.2035224689163924e-01  -7.0279232540991632e-01  -6.8541558837148531e-01  -6.6872576020399033e-01  -6.5222741054676758e-01  -6.3614047704559307e-01  -6.2067272231328618e-01  -6.0568987854421630e-01  -5.9134239576133030e-01  -5.7747420273937111e-01  -5.6422927947429202e-01  -5.5157619233327915e-01  -5.3956103243256337e-01  -5.2798621963867987e-01  -5.1690600661152586e-01  -5.0643613826285228e-01  -4.9644369205664235e-01  -4.8701320064036319e-01  -4.7804343218796624e-01  -4.6960399781975504e-01  -4.6159465024581042e-01  -4.5414295700883611e-01  -4.4716375524304974e-01  -4.4064704609478433e-01  -4.3466199770224828e-01  -4.2922294103150538e-01  -4.2430539242493842e-01  -4.1994935991500287e-01  -4.1617097929939806e-01  -4.1294247292889469e-01  -4.1029593916339213e-01  -4.0819922572071710e-01  -4.0665620143231529e-01  -4.0564095942195311e-01  -4.0512867441716505e-01  -4.0508612465604887e-01  -4.0546644090552209e-01  -4.0624326954757511e-01  -4.0735898927791081e-01  -4.0879345428917263e-01  -4.1048097512606779e-01  -4.1236806929794007e-01  -4.1443185534287508e-01  -4.1662474390794846e-01  -4.1892553900062551e-01  -4.2126092933650922e-01  -4.2364630180063911e-01  -4.2601724150357756e-01  -4.2829856799437227e-01  -4.3052654937214685e-01  -4.3268000602015438e-01  -4.3471693893882379e-01  -4.3661314851420963e-01  -4.3837064879286092e-01  -4.3995120540755972e-01  -4.4135741125210376e-01  -4.4255753041402596e-01  -4.4358508429684618e-01  -4.4437901664218349e-01  -4.4500478633960977e-01  -4.4544585891902283e-01  -4.4567309813985645e-01  -4.4574514035739066e-01  -4.4570063723691766e-01  -4.4551371852777311e-01  -4.4526046630717941e-01  -4.4494123056248380e-01  -4.4460193334994602e-01  -4.4425247989640776e-01  -4.4379833224737286e-01  -4.4369135430656886e-01  -4.4378719267891847e-01  -4.4412994435850606e-01  -4.4470217077280505e-01  -4.4545759963363957e-01  -4.4653270403088041e-01  -4.4798013087882460e-01  -4.4975465520524005e-01  -4.5187680144531939e-01  -4.5438547269587976e-01  -4.5728413734584605e-01  -4.6049010512396976e-01  -4.6416040119335772e-01  -4.6817766971855967e-01  -4.7252745353585435e-01  -4.7720871116470875e-01  -4.8219917187364131e-01  -4.8749995401187557e-01  -4.9297375394603404e-01  -4.9875173295639347e-01  -5.0478788935468066e-01  -5.1083261767996080e-01  -5.1713234804107422e-01  -5.2337567426730713e-01  -5.2977947983586304e-01  -5.3613322006591468e-01  -5.4248446713028831e-01  -5.4875719262669664e-01  -5.5492980662204350e-01  -5.6104701374742239e-01  -5.6696841899433370e-01  -5.7280706387427804e-01  -5.7845800463198438e-01  -5.8398518995652060e-01  -5.8933227089746620e-01  -5.9456771792730012e-01  -5.9965442484117204e-01  -6.0467429920677407e-01  -6.0959011144312136e-01  -6.1448710916169713e-01  -6.1934507859150734e-01  -6.2425954863009925e-01  -6.2927073088149599e-01  -6.3436375618263474e-01  -6.3957894194651566e-01  -6.4506385580016479e-01  -6.5077386435798856e-01  -6.5678020148983929e-01  -6.6310151413850538e-01  -6.6971686383953055e-01  -6.7680038191673708e-01  -6.8423923100008166e-01  -6.9208443374907069e-01  -7.0042752111993090e-01  -7.0913769918265079e-01  -7.1840780741602706e-01  -7.2804710132777872e-01  -7.3811255843598667e-01  -7.4881641470879656e-01  -7.5975570521464075e-01  -7.7109329955711714e-01  -7.8288398453491348e-01  -7.9509999580971880e-01  -8.0756487173637381e-01  -8.2038422226051266e-01  -8.3343458459366881e-01  -8.4677266905754833e-01  -8.6011987571926463e-01  -8.7348084505526236e-01  -8.8697831620899492e-01  -9.0029500618199232e-01  -9.1362987219113945e-01  -9.2681412533303420e-01  -9.3945268805635718e-01  -9.5159163925709611e-01  -9.6333065338228097e-01  -9.7456020557044443e-01  -9.9448410954238808e-01  -1.0030848331272444e+00  -1.0106616831674458e+00  -1.0169492172715251e+00  -1.0218794821739878e+00  -1.0253692938977490e+00  -1.0273977566678791e+00  -1.0278730035498937e+00  -1.0264794678649056e+00  -1.0232953561867051e+00  -1.0180528606459807e+00  -1.0110880112427871e+00  -1.0018280636081960e+00  -9.9066922563936954e-01  -9.7715486360284087e-01  -9.6113686940264997e-01  -9.4300423779654685e-01  -9.2248077131886153e-01  -8.9971610266977597e-01  -8.7429940389676453e-01  -8.4664357691705405e-01  -8.1639110016932903e-01  -7.8368244712365298e-01  -7.4875670737134870e-01  -7.1132840069795744e-01  -6.7176561598197371e-01  -6.2941225596535855e-01  -5.8494282591558322e-01  -5.3841918710905068e-01  -4.8957087239652142e-01  -4.3879750537641382e-01  -3.8580626302297366e-01  -3.3108121339468299e-01  -2.7420903053260137e-01  -2.1596502008974450e-01  -1.5572459038228459e-01  -9.4222269720038304e-02  -3.1010372588979516e-02  3.3141447145205595e-02  9.8646401282095272e-02  1.6541216512442042e-01  2.3275932284691736e-01  3.0062069105352113e-01  3.6958438822311246e-01  4.3893037227642190e-01  5.0831995801302010e-01  5.7813182597796142e-01  6.4781342014049836e-01  7.1714076313173514e-01  7.8649747303795559e-01  8.5509314591172381e-01  9.2333764114263406e-01  9.9051377737029833e-01  1.0569668337490361e+00  1.1219393259583668e+00  1.1859798931701233e+00  1.2485597620460964e+00  1.3093729324895569e+00  1.3683572638604418e+00  1.4256829211880797e+00  1.4809317909803679e+00  1.5336472132520917e+00  1.5844735631922207e+00  1.6325843747192974e+00  1.6783048713269986e+00  1.7211454354216331e+00  1.7613307508973786e+00  1.7988148667571418e+00  1.8327651006393755e+00  1.8634844777494868e+00  1.8919643514889450e+00  1.9162218599794651e+00  1.9374279947925084e+00  1.9553970564885064e+00  1.9694004505092846e+00  1.9807880823225819e+00  1.9879150791277029e+00  1.9916653912615612e+00  1.9885574356779094e+00  1.9816920984988617e+00  1.9713205252500889e+00  1.9574661870652301e+00  1.9400987643129024e+00  1.9187762390920979e+00  1.8943987152559025e+00  1.8670912885307258e+00  1.8362852627497022e+00  1.8021113175369203e+00  1.7649622244300123e+00  1.7246846573950290e+00  1.6817607676891069e+00  1.6358009950488235e+00  1.5873762908038249e+00  1.5361436252870226e+00  1.4827428370383042e+00  1.4268192425845512e+00  1.3690641227743243e+00  1.3091058219130403e+00  1.2475598028658983e+00  1.1840060172500508e+00  1.1191677387358820e+00  1.0527692922909622e+00  9.8545828684750281e-01  9.1686750079714185e-01  8.4756509602628105e-01  7.7742308738833255e-01  7.0706301095063839e-01  6.3616273164022441e-01  5.6494804826247713e-01  4.9406414215532507e-01  4.2317144083587660e-01  3.5261166828593815e-01  2.8247530231503204e-01  2.1299791160896733e-01  1.4431817330499155e-01  7.6528729525193559e-02  1.0172937756361432e-02  -5.5203016488802853e-02  -1.1892279704110521e-01  -1.8153595354523605e-01  -2.4235027764885078e-01  -3.0090756974462918e-01  -3.5807977949239034e-01  -4.1299147816142884e-01  -4.6598548803607459e-01  -5.1696203580087297e-01  -5.6518279173932895e-01  -6.1111902573224641e-01  -6.5468984140052133e-01  -6.9604238865813339e-01  -7.3452827203514126e-01  -7.7071231098424287e-01  -8.0392167596173858e-01  -8.3471077777247205e-01  -8.6265583024612924e-01  -8.8814639159170572e-01  -9.1083295047912249e-01  -9.3107048370911316e-01  -9.4844399930833745e-01  -9.6324178627874568e-01  -9.7550501893987451e-01  -9.8542121739736077e-01  -9.9286303619606631e-01  -9.9788007936926193e-01  -1.0007251777746127e+00  -1.0016480303327080e+00  -1.0003984728564688e+00  -9.9668634975727377e-01  -9.9166252405175359e-01  -9.8474968862082424e-01  -9.7620866857068100e-01  -9.6612483013455963e-01  -9.5466565512429491e-01  -9.4196287683470725e-01  -9.2813256670722655e-01  -9.1338990908827689e-01  2.8712505296669493e-03  -4.0902449460886697e-01  -5.0214025419253860e-01  -2.8727450958543135e-02  -2.5922089268553380e-02  2.1954684499263541e-01  5.5363930637429171e-01  9.6707193181208984e-01  9.4200381310707049e-01  4.6659928376547261e-01  1.2634043118500529e-01  -6.8602483625689026e-01  -3.5353778593109669e-01  -1.9401867347334875e-01  -5.2377970016274689e-01  -5.4072413524206031e-01  -2.6614628247054611e-01  -1.0262528280617286e-01  3.8715138991118020e-01  9.2872268429357230e-01  1.3889435418305418e+00  1.2938946557246254e+00  6.3650608915016704e-01  1.0210660290961701e-01  -4.7554051161706212e-01  -3.7208716773030637e-01  -5.4495386193300177e-01  -2.9181601291898279e-01  -1.0098069186965436e-01  2.9880890424844947e-01  -6.0007078961463933e-01  -5.9113252528739835e-01  -3.6310038035066972e-01  -4.3629247200552929e-01  -4.9032699708699445e-01  -4.6974934888718667e-01  1.0326145977304870e+00  3.9019528685203309e-01  -1.5137057703631612e-01  8.3851901091212266e-01  1.4311742706114696e+00  1.7223885469999487e+00  1.6427918027635058e+00  -5.1631769173072406e-01  -5.0086133557477840e-02  2.2139181547685179e-02  -6.2373006567204292e-01  -5.7259156630728114e-01  -3.4080162236311648e-02  -3.2542124574565230e-03  -4.4511108126477178e-01  -4.1554098650836319e-01  -6.5087461265734212e-02  1.3466968912681294e+00  -2.7798334299439332e-02  -3.9112779493735805e-01  -3.8842495917387404e-01  -4.2724027241265544e-01  -6.1242330793265587e-01  -5.5024403844612824e-01  -4.8956303090791853e-01  -7.2485082685388322e-02  -5.8088643821130903e-01  -2.4368559314799990e-01  9.0467153908755404e-01  3.5794364609707890e-01  -8.7220106589373472e-02  -5.0171434442862850e-01  -6.0969285210278157e-01  -7.1739667613964553e-01  4.8251719658159824e-02  -4.5224560770146593e-01  -6.4676164233082833e-01  -5.8240168958396055e-01  1.8525371147838687e+00  1.8566888763643279e+00  1.6120862851129811e+00  1.1901710495119804e+00  -7.2979354379007733e-01  4.3175912627209445e-01  3.2621440548397229e-01  -5.5556371169430230e-01  -7.3548689265794687e-01  -7.0925990061486854e-01  -7.7924451947679430e-01  2.5776231814953360e-01  1.7503500009879736e+00  8.0902919527500478e-02  -8.5242522016555611e-01  -8.2716603555752333e-01  -4.3761720679772093e-01  6.3003181173724401e-02  1.7504232164616915e-01  9.4284195719849126e-02  1.6140185452693545e-01  -1.3852107106931100e-01  -5.1024446942445811e-01  -4.1449399411906052e-01  -6.0385928109616926e-01  -4.6020783459188586e-01  -4.4559324301735997e-01  1.5378710372210151e+00  9.6750651513370270e-02  1.2289280179113156e+00  6.6183292923788953e-02  6.8040494861452000e-02  -2.0946221918251914e-01  -5.4173802567831542e-01  -4.7868914850802019e-01  -6.2685048460888404e-01  7.4660307577261420e-01  -4.1849118190321671e-01  -4.0198072191116492e-02  1.0880358962311784e-01  -8.8723519064180745e-01  -6.9135399141050113e-01  -5.8710968731117474e-01  -3.9918178236488022e-01  -8.9536687552092972e-02  1.2682570501072296e-01  -4.7458362413586802e-01  4.1219221625026770e-01  2.1889027087842300e-01  1.1123011041953146e-01  -1.2541825620443120e-01  -6.2611207489494516e-02  6.0408593447165515e-01  3.6415626381586824e-01  4.8908203846801786e-02  1.3890181231121086e+00  -1.3432644587019416e-01  -9.0113017376214055e-01  -4.3106056875724785e-01  1.1482112895684911e+00  -5.7105931550284772e-01  3.1976207607456925e-01  -5.6062073878893455e-02  5.4554846032320303e-01  -4.0902759184358867e-01  9.1686771354234664e-01  9.4548740875749293e-01  -1.0770430677479104e+00  -4.0708956912874694e-01  6.5349306531059226e-01  -8.8194763825221401e-01  -7.1866916455552632e-01  -5.0368029810088788e-01  -3.9496131429206810e-01  -1.1573056111561870e-01  -3.6280032267816498e-01  -5.9342004550263050e-01  1.1045128312817387e+00  -6.5453130518981606e-01  -6.8748810783654579e-01  -2.5884452826066373e-01  3.0411929181129466e-01  1.7790920569916271e+00  3.2691486057756869e-01  1.9388374689685874e+00  1.9079762411614105e+00  1.5147474954318325e+00  2.9379543678456971e-01  -2.4664683510043883e-01  2.7970843336796264e-01  4.2207213606613218e-02  1.0996665166203154e-01  -8.1289342668924502e-01  1.0328482668290030e-01  -3.2594216762865663e-01  2.3304015395914821e-01  -2.0762419741405477e-01  -8.7358357943753917e-01  -5.1947190855800929e-01  3.7727758983651251e-02  -8.3493160225532681e-01  -5.6666556077776964e-01  -4.4420248181425931e-01  -4.4742058933840523e-01  -4.4342666798777802e-01  6.7095733622680576e-01  -1.1142275771470438e-01  2.0651200221962634e-01  -5.5209767252367159e-01  -7.9476369243160949e-01  3.0864445293400711e-01  -5.2073079348477158e-01  1.5436503486385685e-03  -2.7266288378759812e-01  7.5340928816092978e-01  -6.3466623733577332e-01  -1.2597374377022139e-01  -9.4541458099051179e-01  1.2926465362010564e-01  2.4623685991276667e-01  5.2609959396791994e-01  4.3730966081592249e-01  -5.8656360506204053e-01  1.9065074523682937e+00  2.4225116593485549e-01  1.8418640653812761e+00  1.7133177668381918e+00  1.5903469030321935e+00  -1.7852118909916864e-01  -4.4954387494272291e-01  1.0086365082670738e-01  -4.4005725219833675e-01  9.0839511489704461e-01  2.0256924686700892e-01  -7.7356687904372379e-01  -4.7290979823354862e-01  -3.3613653634347007e-01  1.5101693638742536e-02  -9.2583154549329560e-01  1.1976761835259520e+00  -3.5266480376420067e-01  -7.2705579280268817e-01  -9.6334090040266862e-01  1.7571024141269947e-01  4.8378491494593795e-01  -2.6916756613467326e-02  1.9210766721827902e-01  4.9151189060081840e-01  -5.1512962742960777e-01  -4.9249820547793116e-01  6.9398440595915034e-01  -4.9771340052706187e-01  -5.9919043712849585e-01  -8.2084248509293134e-01  -2.1743205133356353e-01  6.1511091060342793e-01  -4.2597881961395345e-01  -1.8835381633816720e-02  -9.1832279129740380e-01  1.3546128071174759e+00  1.2294463672014838e-01  1.3805884566436559e+00  4.9034077494786049e-01  -7.5693721132568137e-01  -4.6348530985243924e-01  -4.2416869395460061e-01  -6.1883171534009329e-01  -7.8917013053406848e-01  3.7655475891861878e-01  -8.0917679505130402e-02  3.0590398424756265e-01  -1.0706800201040529e-02  -1.6640168916792822e-01  7.5479876229303494e-02  4.2223106700479346e-01  -5.0650387698165233e-01  -3.9231220606358047e-01  1.5497277230726175e-01  1.3055489314881377e-01  -1.2783982586238818e-01  1.4018400172340142e-01  -4.0514147622526320e-01  -4.1784644659944348e-01  -4.0580569962183566e-01  -5.4870882062609028e-01  -4.1761803796161462e-01  1.6945411706162419e+00  -4.7976458812343320e-01  1.3724381572525912e-01  -5.7695833056089518e-01  1.0047302674964721e-01  -2.8315128632120674e-02  7.0861047770653285e-01  1.1433094721550792e+00  2.7576346750680697e-01  2.0167254694560720e-02  3.3917629410442773e-01  1.7310143796592256e-01  -8.9176753730537206e-01  -9.5387019303051457e-01  -5.8746361120336421e-01  2.8210001261890055e-01  3.7223371640919134e-01  -2.6514736249997045e-01  9.0072574668284600e-01  1.2709396148684240e+00  5.6544453639825853e-02  1.700540482