<?xml version="1.0"?>
<VTKFile type="UnstructuredGrid"  version="0.1"  >
<UnstructuredGrid>
<Piece  NumberOfPoints="5712" NumberOfCells="10893">
<Points>
<DataArray  type="Float64"  NumberOfComponents="3"  format="ascii">0 0 0  0 0.41 0  2.2 0 0  2.2 0.41 0  0.2 0.25 0  0.25 0.2 0  0.2 0.15 0  0.15 0.2 0  0 0.3904761904762147 0  0 0.3709523809524729 0  0 0.3514285714286954 0  0 0.3319047619049458 0  0 0.3123809523811823 0  0 0.2928571428574404 0  0 0.2733333333336768 0  0 0.2538095238099349 0  0 0.2342857142861567 0  0 0.2147619047624078 0  0 0.1952380952385999 0  0 0.1757142857147328 0  0 0.1561904761908952 0  0 0.1366666666670465 0  0 0.1171428571431906 0  0 0.09761904761931661 0  0 0.0780952380954425 0  0 0.05857142857161174 0  0 0.03904761904773757 0  0 0.01952380952386334 0  0.01986745845578998 0 0  0.03982462845278956 0 0  0.05987191195217309 0 0  0.0800097046343772 0 0  0.1002384394563812 0 0  0.1205585077310739 0 0  0.1409703274044529 0 0  0.1614743126654433 0 0  0.1820708739963059 0 0  0.2027604497544275 0 0  0.2235434355718665 0 0  0.2444202633435119 0 0  0.265391361068545 0 0  0.2864571529028895 0 0  0.3076180592107884 0 0  0.3288745151942862 0 0  0.3502269459367295 0 0  0.3716757933139423 0 0  0.3932214934733583 0 0  0.4148644812710909 0 0  0.4366051859408088 0 0  0.4584440653716539 0 0  0.48038154995608 0 0  0.5024180900849111 0 0  0.5245541321026944 0 0  0.5467901197490906 0 0  0.5691265226973262 0 0  0.5915637755827025 0 0  0.614102339850345 0 0  0.636742674167927 0 0  0.6594852330945143 0 0  0.6823304884387933 0 0  0.7052788907288091 0 0  0.7283309147437839 0 0  0.751487030986726 0 0  0.7747477057419434 0 0  0.7981134011315298 0 0  0.821584610595033 0 0  0.8451617959659341 0 0  0.8688454391891771 0 0  0.8926360178861791 0 0  0.9165340281873645 0 0  0.9405399372917173 0 0  0.9646542424736072 0 0  0.9888774365267383 0 0  1.013210007824441 0 0  1.037652440378865 0 0  1.06220524733373 0 0  1.086868914509785 0 0  1.111643945154348 0 0  1.136530838720734 0 0  1.161530116277625 0 0  1.186642266933783 0 0  1.211867807739771 0 0  1.237207251805963 0 0  1.26266110764717 0 0  1.288229902058941 0 0  1.313914143782356 0 0  1.339714360040014 0 0  1.36563107331828 0 0  1.391664802767304 0 0  1.417816093074858 0 0  1.444085461454821 0 0  1.470473442759746 0 0  1.496980573539167 0 0  1.523607398041112 0 0  1.550354449227912 0 0  1.577222271446548 0 0  1.60421140927435 0 0  1.631322413213628 0 0  1.658555830029694 0 0  1.685912218634225 0 0  1.713392126884173 0 0  1.740996123438425 0 0  1.768724751279777 0 0  1.796578588883932 0 0  1.824558192783585 0 0  1.852664140769835 0 0  1.880896988683294 0 0  1.909257322654582 0 0  1.93774570990443 0 0  1.966362727809846 0 0  1.995108970713317 0 0  2.023985006033532 0 0  2.052991427225145 0 0  2.082128822851723 0 0  2.111397799134646 0 0  2.140798904430552 0 0  2.170332790993664 0 0  2.2 0.02928571428565775 0  2.2 0.05857142857131794 0  2.2 0.08785714285694929 0  2.2 0.1171428571425731 0  2.2 0.1464285714282011 0  2.2 0.1757142857138497 0  2.2 0.2049999999994743 0  2.2 0.2342857142852724 0  2.2 0.2635714285710462 0  2.2 0.2928571428568132 0  2.2 0.3221428571426234 0  2.2 0.3514285714283903 0  2.2 0.3807142857142005 0  2.170332790993718 0.41 0  2.140798904430656 0.41 0  2.111397799134855 0.41 0  2.082128822859404 0.41 0  2.052991427232898 0.41 0  2.023985006041361 0.41 0  1.99510897072121 0.41 0  1.966362727817755 0.41 0  1.937745709912357 0.41 0  1.90925732266254 0.41 0  1.880896988691295 0.41 0  1.852664140777879 0.41 0  1.824558192791673 0.41 0  1.79657858889206 0.41 0  1.768724751287952 0.41 0  1.740996123446639 0.41 0  1.713392126892427 0.41 0  1.685912218642533 0.41 0  1.658555830038071 0.41 0  1.631322413222075 0.41 0  1.604211409282859 0.41 0  1.577222271455122 0.41 0  1.55035444923655 0.41 0  1.523607398049813 0.41 0  1.496980573547932 0.41 0  1.470473442768574 0.41 0  1.444085461463712 0.41 0  1.417816093083807 0.41 0  1.391664802776313 0.41 0  1.365631073327341 0.41 0  1.339714360049107 0.41 0  1.31391414379148 0.41 0  1.288229902068097 0.41 0  1.262661107656355 0.41 0  1.237207251815179 0.41 0  1.211867807749015 0.41 0  1.186642266943055 0.41 0  1.161530116286924 0.41 0  1.13653083873006 0.41 0  1.111643945163706 0.41 0  1.086868914519036 0.41 0  1.062205247342763 0.41 0  1.037652440387677 0.41 0  1.013210007833036 0.41 0  0.9888774365351134 0.41 0  0.9646542424817568 0.41 0  0.9405399372996428 0.41 0  0.916534028195068 0.41 0  0.8926360178936621 0.41 0  0.8688454391964415 0.41 0  0.8451617959729809 0.41 0  0.8215846106018625 0.41 0  0.7981134011381465 0.41 0  0.7747477057483507 0.41 0  0.7514870309929218 0.41 0  0.7283309147497725 0.41 0  0.7052788907345926 0.41 0  0.6823304884443711 0.41 0  0.6594852330998913 0.41 0  0.6367426741731019 0.41 0  0.6141023398553211 0.41 0  0.5915637755874821 0.41 0  0.5691265227019089 0.41 0  0.5467901197534788 0.41 0  0.5245541321068876 0.41 0  0.5024180900889137 0.41 0  0.4803815499598949 0.41 0  0.458444065375283 0.41 0  0.4366051859442526 0.41 0  0.4148644812743503 0.41 0  0.3932214934764355 0.41 0  0.3716757933168389 0.41 0  0.3502269459394474 0.41 0  0.3288745151968251 0.41 0  0.3076180592131517 0.41 0  0.2864571529050777 0.41 0  0.2653913610705745 0.41 0  0.2444202633453989 0.41 0  0.2235434355736121 0.41 0  0.202760449756034 0.41 0  0.1820708739977555 0.41 0  0.1614743126667344 0.41 0  0.140970327405586 0.41 0  0.120558507732039 0.41 0  0.1002384394571796 0.41 0  0.08000970463500767 0.41 0  0.05987191195264252 0.41 0  0.03982462845310097 0.41 0  0.01986745845594617 0.41 0  0.2009941093832422 0.2499901164885035 0  0.2019878257548352 0.2499604698613656 0  0.2029807562584742 0.2499110718390977 0  0.2039725083485626 0.2498419419507366 0  0.2049626899453778 0.2497531075261239 0  0.2059509095900689 0.2496446036851018 0  0.2069367765994233 0.2495164733236293 0  0.2079199012203332 0.2493687670968211 0  0.208899894783849 0.2492015433989262 0  0.209876369858873 0.2490148683402368 0  0.2108489404052936 0.2488088157209575 0  0.2118172219266183 0.248583467002027 0  0.2127808316219855 0.248338911272912 0  0.2137393885375067 0.2480752452163837 0  0.2146925137168532 0.2477925730703012 0  0.2156398303510693 0.247491006586403 0  0.2165809639275547 0.2471706649861239 0  0.2175155423781385 0.2468316749134561 0  0.2184431962261471 0.2464741703848905 0  0.2193635587324768 0.2460982927364335 0  0.2202762660405913 0.2457041905677276 0  0.2211809573203641 0.2452920196833053 0  0.2220772749107273 0.2448619430309942 0  0.2229648644610677 0.2444141306374986 0  0.2238433750713457 0.2439487595411649 0  0.2247124594307593 0.2434660137220228 0  0.2255717739550953 0.2429660840290282 0  0.2264209789225549 0.2424491681046155 0  0.227259738608055 0.2419154703065648 0  0.2280877214159585 0.2413652016272072 0  0.2289046000111568 0.2407985796100187 0  0.2297100514485014 0.2402158282636004 0  0.2305037573004443 0.2396171779731418 0  0.2312854037829426 0.2390028654093291 0  0.2320546818795267 0.2383731334347658 0  0.2328112874634348 0.2377282310079845 0  0.2335549214178666 0.2370684130850081 0  0.2342852897542382 0.2363939405185524 0  0.23500210372839 0.2357050799549172 0  0.2357050799547543 0.2350021037285561 0  0.236393940518396 0.2342852897544042 0  0.2370684130848552 0.2335549214180355 0  0.2377282310078377 0.2328112874636036 0  0.2383731334346237 0.2320546818796969 0  0.2390028654091947 0.2312854037831102 0  0.2396171779730177 0.2305037573006055 0  0.2402158282634863 0.2297100514486559 0  0.2407985796099098 0.2289046000113105 0  0.2413652016271038 0.2280877214161108 0  0.2419154703064672 0.2272597386082051 0  0.2424491681045289 0.2264209789226942 0  0.2429660840289533 0.2255717739552211 0  0.2434660137219522 0.2247124594308835 0  0.2439487595410967 0.2238433750714713 0  0.2444141306374335 0.2229648644611936 0  0.2448619430309386 0.2220772749108404 0  0.2452920196832561 0.2211809573204692 0  0.2457041905676833 0.2202762660406911 0  0.2460982927363924 0.2193635587325747 0  0.246474170384854 0.2184431962262392 0  0.2468316749134214 0.2175155423782314 0  0.2471706649860917 0.216580963927646 0  0.2474910065863757 0.215639830351152 0  0.2477925730702761 0.2146925137169349 0  0.2480752452163603 0.2137393885375889 0  0.2483389112728914 0.2127808316220633 0  0.248583467002012 0.2118172219266803 0  0.2488088157209458 0.2108489404053462 0  0.2490148683402261 0.2098763698589259 0  0.249201543398917 0.2088998947838999 0  0.2493687670968142 0.2079199012203759 0  0.2495164733236233 0.2069367765994661 0  0.2496446036850975 0.205950909590105 0  0.2497531075261207 0.2049626899454101 0  0.2498419419507343 0.2039725083485922 0  0.2499110718390968 0.2029807562584889 0  0.2499604698613655 0.2019878257548365 0  0.2499901164885035 0.2009941093832422 0  0.2499901164885035 0.1990058906167579 0  0.2499604698613656 0.1980121742451648 0  0.2499110718390977 0.1970192437415259 0  0.2498419419507366 0.1960274916514374 0  0.2497531075261239 0.1950373100546222 0  0.2496446036851018 0.1940490904099311 0  0.2495164733236293 0.1930632234005767 0  0.2493687670968211 0.1920800987796668 0  0.2492015433989262 0.191100105216151 0  0.2490148683402368 0.190123630141127 0  0.2488088157209575 0.1891510595947065 0  0.248583467002027 0.1881827780733817 0  0.248338911272912 0.1872191683780146 0  0.2480752452163837 0.1862606114624933 0  0.2477925730703012 0.1853074862831468 0  0.247491006586403 0.1843601696489307 0  0.2471706649861239 0.1834190360724454 0  0.2468316749134561 0.1824844576218615 0  0.2464741703848905 0.181556803773853 0  0.2460982927364335 0.1806364412675232 0  0.2457041905677276 0.1797237339594087 0  0.2452920196833053 0.1788190426796359 0  0.2448619430309942 0.1779227250892727 0  0.2444141306374986 0.1770351355389324 0  0.2439487595411649 0.1761566249286543 0  0.2434660137220228 0.1752875405692407 0  0.2429660840290282 0.1744282260449047 0  0.2424491681046155 0.1735790210774451 0  0.2419154703065648 0.172740261391945 0  0.2413652016272072 0.1719122785840415 0  0.2407985796100187 0.171095
[...]
<PointData  Scalars="f_19"> 
<DataArray  type="Float64"  Name="f_19"  format="ascii">4.3250991638299408e-01  5.8431180536063188e-01  0.0000000000000000e+00  0.0000000000000000e+00  -6.4659949627171698e-01  -5.0155721781639728e-01  -1.2503333909559531e+00  1.9868696336519454e+00  5.8442553672531361e-01  5.8837719578081848e-01  6.0030842156726871e-01  6.2263252032895533e-01  6.5666492884018557e-01  6.9987756024075964e-01  7.4825189594239150e-01  7.9397627696369355e-01  8.2865723250810563e-01  8.4247464207087852e-01  8.2998282230927312e-01  7.9214537780569239e-01  7.3368520246915447e-01  6.6410355305155067e-01  5.9482837027640745e-01  5.3368412075415783e-01  4.8656590254126014e-01  4.5520860597957841e-01  4.3809204723367023e-01  4.3256110297214617e-01  4.3156963601227399e-01  4.2869824674647133e-01  4.2223674869211292e-01  4.1038696831218768e-01  3.9107616553655900e-01  3.6236837067265060e-01  3.2322855931527028e-01  2.7428686928719526e-01  2.1825998366279770e-01  1.5950228434438835e-01  1.0385263236075438e-01  5.7108967105037260e-02  2.2352778559367799e-02  1.1588443705367998e-03  -5.0625428621833670e-03  4.1086155485346113e-03  2.6878463251812861e-02  5.8360991657911615e-02  1.0802317713338971e-01  1.6596256173815416e-01  2.2915832631446315e-01  2.9049082270471577e-01  3.4682657508754494e-01  3.8838589384232269e-01  4.1089268786870481e-01  4.0986106627055541e-01  3.8404699327148983e-01  3.4003482762988696e-01  2.8564432380416199e-01  2.3390466137313787e-01  1.9275535489433068e-01  1.5894155188585626e-01  1.3443965142834588e-01  1.1347619074492336e-01  9.7853662860286614e-02  9.5166699232063279e-02  1.1463240967914448e-01  1.5598502982421480e-01  2.0886004293543439e-01  2.5918226803990796e-01  2.9648650899097134e-01  3.1519169075998765e-01  3.1785875124810525e-01  3.0491458530625098e-01  2.8335172181000046e-01  2.5237311370808729e-01  2.1477063646571148e-01  1.6375521277716149e-01  1.0694383244147850e-01  4.8514793458049106e-02  -5.5873990497663361e-04  -1.8577674803524138e-02  4.3391553170129930e-03  5.6675414043312500e-02  1.2324500071574565e-01  1.8790747459530155e-01  2.3447587699042072e-01  2.5919900179292571e-01  2.6230577579548092e-01  2.4373188943158472e-01  2.0809377909542037e-01  1.5668904227298744e-01  9.7717783505929551e-02  3.4145797494233028e-02  -2.2965386762986480e-02  -5.0408511503837197e-02  -5.5983127735538499e-02  -3.1221339883539780e-02  1.2296288153760288e-02  6.3399762962653303e-02  1.1000954307064328e-01  1.4698847193437228e-01  1.6584377862899913e-01  1.6292562848831785e-01  1.4483461052601551e-01  1.0940157617873986e-01  5.9930325315065619e-02  8.6670843924171181e-03  -4.0969260568949513e-02  -7.2822550927681237e-02  -8.6606430271867610e-02  -7.2344782514457723e-02  -3.9689231081033567e-02  -2.0144492492934233e-03  3.5910480569518198e-02  5.9347017477208060e-02  6.6378643111864824e-02  5.6005672460794562e-02  3.3279445091974405e-02  0.0000000000000000e+00  0.0000000000000000e+00  0.0000000000000000e+00  0.0000000000000000e+00  0.0000000000000000e+00  0.0000000000000000e+00  0.0000000000000000e+00  0.0000000000000000e+00  0.0000000000000000e+00  0.0000000000000000e+00  0.0000000000000000e+00  0.0000000000000000e+00  0.0000000000000000e+00  -2.8965473486596085e-02  -4.7144767790846864e-02  -4.8862599614404076e-02  -2.7791403075182883e-02  5.0688998600677913e-03  4.5453630552901580e-02  8.4732745171731086e-02  1.1322203383475921e-01  1.3024756070138171e-01  1.3002183955364557e-01  1.1083552533569789e-01  8.2332472785465224e-02  4.0245499480160055e-02  -3.2723654721755363e-03  -4.0060872561093773e-02  -5.8328595895363822e-02  -5.4439751891058138e-02  -2.5189414517796039e-02  2.1985562551192057e-02  7.5281542956457934e-02  1.2834111377975149e-01  1.7018807103470965e-01  1.9971721354615452e-01  2.0657182984984451e-01  2.0109300446749304e-01  1.6894441034117252e-01  1.2220955494360983e-01  6.8689583890071904e-02  1.2591087214197298e-02  -2.8363280565770508e-02  -4.1833537901299941e-02  -1.8677764119175523e-02  3.5260587001874004e-02  1.0781101110286820e-01  1.8033783320635188e-01  2.3837342326777428e-01  2.8209325428506082e-01  3.0889623238706360e-01  3.2099577667041790e-01  3.0373235279687572e-01  2.7146243475713189e-01  2.0566838290414705e-01  1.3018244660015302e-01  6.7032740548121431e-02  3.6207535736767313e-02  3.5986587464389791e-02  6.5277646413043205e-02  1.0638532239053609e-01  1.5284038389182017e-01  1.9456204769406618e-01  2.3254315278605001e-01  2.6337361659019337e-01  2.9068647936637765e-01  3.1430739432990140e-01  3.3329200770738715e-01  3.4140450502940134e-01  3.3755325329318187e-01  3.1692196024465302e-01  2.8360472658089625e-01  2.3973288986997648e-01  1.9109826108030914e-01  1.3957301745113812e-01  9.5377839317520835e-02  6.2957039276357499e-02  4.6686178082855544e-02  4.8043394984615580e-02  6.6585074971208760e-02  9.3591064976236732e-02  1.2658960817670720e-01  1.5528672804327642e-01  1.8167492749037131e-01  2.0445859922673418e-01  2.2474254937040444e-01  2.4445484351302846e-01  2.6725005307824501e-01  2.9141542943072168e-01  3.2117643088949921e-01  3.5467731441571576e-01  3.9055498349059031e-01  4.2861890387563822e-01  4.6437517823691121e-01  4.9645035841972884e-01  5.2286024929455344e-01  5.4363822761795577e-01  5.5802297459047145e-01  5.6906632951303926e-01  5.7566456477462358e-01  5.8095945234052682e-01  5.8292132081666737e-01  -6.3308422063155956e-01  -6.1911838438497280e-01  -6.0483474328550413e-01  -5.9028119924598266e-01  -5.7550052890082859e-01  -5.6050631440007448e-01  -5.4559385496190826e-01  -5.3072553057824690e-01  -5.1609706235472375e-01  -5.0169849117225851e-01  -4.8759775890531437e-01  -4.7369863310772437e-01  -4.6044302255169522e-01  -4.4738748807349338e-01  -4.3472644071044264e-01  -4.2263508097672325e-01  -4.1099622858438284e-01  -3.9993160457718002e-01  -3.8930619814817224e-01  -3.7923606660195280e-01  -3.6969080917843272e-01  -3.6069935871217135e-01  -3.5209023534289163e-01  -3.4390324461448490e-01  -3.3622081176670854e-01  -3.2892639562403492e-01  -3.2207307520743561e-01  -3.1556830218297721e-01  -3.0945195737413045e-01  -3.0363217336309228e-01  -2.9819391610085477e-01  -2.9306202993149982e-01  -2.8822204239604993e-01  -2.8371009594778079e-01  -2.7954114655774270e-01  -2.7570042297760827e-01  -2.7221412923154592e-01  -2.6912253343751991e-01  -2.6641097086454602e-01  -2.6412573976387238e-01  -2.6225598907459530e-01  -2.6084315638508160e-01  -2.5988431370662723e-01  -2.5941987052242849e-01  -2.5943195044179895e-01  -2.5987759023531509e-01  -2.6088336899200470e-01  -2.6237602994526066e-01  -2.6422650935277064e-01  -2.6663103343462974e-01  -2.6938009739363300e-01  -2.7263325015844914e-01  -2.7626437094470219e-01  -2.8030218293085274e-01  -2.8471160688012970e-01  -2.8950673536168775e-01  -2.9464423788655686e-01  -3.0020530238662702e-01  -3.0611479562635119e-01  -3.1238284122504745e-01  -3.1899279253152768e-01  -3.2599752353519484e-01  -3.3334473339136966e-01  -3.4109106772619552e-01  -3.4919375476264686e-01  -3.5771723544570072e-01  -3.6659158303983486e-01  -3.7591391109931704e-01  -3.8558511317170219e-01  -3.9563620161357826e-01  -4.0615733181990643e-01  -4.1702826925541459e-01  -4.2821777835241159e-01  -4.3979737760374810e-01  -4.5164479866158852e-01  -4.6381821062391698e-01  -4.7621473633902656e-01  -4.8881858561927222e-01  -5.1448985514560741e-01  -5.2744363917585568e-01  -5.4033462707123381e-01  -5.5328851529566803e-01  -5.6611260211124259e-01  -5.7876644299056612e-01  -5.9110946588243352e-01  -6.0329658174807421e-01  -6.1506787082849401e-01  -6.2651317789139771e-01  -6.3746274883650211e-01  -6.4801173532417855e-01  -6.5803869582628838e-01  -6.6749649864351113e-01  -6.7645859553210330e-01  -6.8480554038367913e-01  -6.9262742803291744e-01  -6.9982222330008115e-01  -7.0649272180334177e-01  -7.1262309871235441e-01  -7.1814945373325834e-01  -7.2312517195925385e-01  -7.2774659337429015e-01  -7.3179247809773906e-01  -7.3549448268477569e-01  -7.3876282953664441e-01  -7.4171049278959877e-01  -7.4436011714250072e-01  -7.4679437856193298e-01  -7.4910185628822956e-01  -7.5118870170517582e-01  -7.5327643703829406e-01  -7.5530685453175272e-01  -7.5740134479141663e-01  -7.5960805237852225e-01  -7.6196468616286550e-01  -7.6454300896323901e-01  -7.6738653666700818e-01  -7.7057318432997290e-01  -7.7412211431821565e-01  -7.7809457006604066e-01  -7.8249407631687173e-01  -7.8739206620325775e-01  -7.9281786754725403e-01  -7.9873537003951911e-01  -8.0515474266278508e-01  -8.1218768874106062e-01  -8.1973158228933007e-01  -8.2785118790485190e-01  -8.3650468099321074e-01  -8.4564542990912372e-01  -8.5542714800399666e-01  -8.6568466472550920e-01  -8.7646404421429636e-01  -8.8784004341109213e-01  -8.9964922879826759e-01  -9.1210284007150921e-01  -9.2496609029887977e-01  -9.3830911166309905e-01  -9.5236201419182209e-01  -9.6666004531414285e-01  -9.8139222176437080e-01  -9.9661262370201320e-01  -1.0122893822170114e+00  -1.0282159621883384e+00  -1.0445134108576488e+00  -1.0610331987680652e+00  -1.0778390478316293e+00  -1.0946136810268758e+00  -1.1113672304648639e+00  -1.1282258724125367e+00  -1.1448402828348476e+00  -1.1614244576392261e+00  -1.1777900747427392e+00  -1.1935071570624824e+00  -1.2086319003995065e+00  -1.2232635966186183e+00  -1.2372891833367616e+00  -1.2624401230994062e+00  -1.2734662871232012e+00  -1.2833414379796564e+00  -1.2917805077649789e+00  -1.2987220246212920e+00  -1.3040757056926613e+00  -1.3078326072223772e+00  -1.3098915715640955e+00  -1.3099285714125977e+00  -1.3080252979498450e+00  -1.3039102949153780e+00  -1.2979357491169272e+00  -1.2895131065533070e+00  -1.2790629360683667e+00  -1.2660933925097428e+00  -1.2504613832103937e+00  -1.2325808859471779e+00  -1.2121696739049896e+00  -1.1893769242420371e+00  -1.1637734129910633e+00  -1.1358044004230681e+00  -1.1050752824345216e+00  -1.0717474683643158e+00  -1.0360679213765662e+00  -9.9774761265063783e-01  -9.5716440441338746e-01  -9.1358625539960936e-01  -8.6777003699550193e-01  -8.1975991401809922e-01  -7.6927033674258161e-01  -7.1670427747129739e-01  -6.6176219967453531e-01  -6.0493128402855334e-01  -5.4578475795243631e-01  -4.8512682751671959e-01  -4.2228921644378853e-01  -3.5803356577744982e-01  -2.9189459239515886e-01  -2.2468742457901017e-01  -1.5587788099082014e-01  -8.5639613133003764e-02  -1.4736625944190810e-02  5.6871480430473180e-02  1.2985097267668408e-01  2.0333393597684968e-01  2.7700111443984804e-01  3.5132147415646392e-01  4.2565134301255619e-01  4.9980486152941883e-01  5.7420606486455805e-01  6.4799999371877492e-01  7.2162811067616650e-01  7.9433046387863249e-01  8.6649241464555182e-01  9.3733493108456667e-01  1.0074522440370062e+00  1.0762137707484729e+00  1.1433956610698801e+00  1.2089523373048672e+00  1.2729692689769199e+00  1.3350224807268536e+00  1.3947159624175012e+00  1.4526699317058007e+00  1.5080148357075009e+00  1.5611162908908414e+00  1.6114220448689729e+00  1.6592211904162315e+00  1.7043759860528169e+00  1.7461179253101009e+00  1.7847570942962541e+00  1.8211966600198115e+00  1.8535201817953963e+00  1.8828248788842143e+00  1.9089814977825614e+00  1.9311789683994680e+00  1.9508415055173023e+00  1.9662633582750955e+00  1.9783072703616631e+00  1.9918447598685944e+00  1.9933166614113056e+00  1.9912349928291990e+00  1.9856811440111233e+00  1.9765411395679693e+00  1.9634181899056440e+00  1.9472055829395729e+00  1.9280140088210274e+00  1.9052190232139068e+00  1.8790082455601764e+00  1.8497099863867030e+00  1.8172326734987434e+00  1.7819655915254791e+00  1.7435867944765346e+00  1.7025956108664293e+00  1.6587016976527191e+00  1.6124857144576623e+00  1.5636461920779441e+00  1.5128123055310654e+00  1.4596550340059307e+00  1.4047215508519346e+00  1.3476447739749371e+00  1.2891093355364383e+00  1.2288787900081115e+00  1.1675452675903104e+00  1.1047687690374288e+00  1.0411130151750603e+00  9.7646858358836786e-01  9.1140590578331471e-01  8.4558138886222745e-01  7.7931962152625667e-01  7.1317429625805151e-01  6.4681437928117724e-01  5.8061686258884260e-01  5.1468970925652158e-01  4.4924706894219618e-01  3.8440055855852018e-01  3.2028279668750348e-01  2.5738439491706611e-01  1.9528295792568948e-01  1.3465690893146992e-01  7.4987139055236976e-02  1.6943490431639084e-02  -3.9082849940638119e-02  -9.3844164660731672e-02  -1.4652939367508327e-01  -1.9746153334160871e-01  -2.4651116749133925e-01  -2.9302088016063832e-01  -3.3741979154902840e-01  -3.7960022603681520e-01  -4.1970199952152920e-01  -4.5711271572568996e-01  -4.9237170659499890e-01  -5.2482949180071825e-01  -5.5502158000841240e-01  -5.8252985008707681e-01  -6.0773208083528618e-01  -6.3028776371274031e-01  -6.5054626157429296e-01  -6.6811000841339252e-01  -6.8325820669535942e-01  -6.9602262858028041e-01  -7.0659073516600568e-01  -7.1483944534241595e-01  -7.2082523120877351e-01  -7.2478952446246292e-01  -7.2697463316496669e-01  -7.2714235718589049e-01  -7.2502662685358599e-01  -7.2172404514162170e-01  -7.1668592493323480e-01  -7.1016924938090475e-01  -7.0225040456882348e-01  -6.9309665419548849e-01  -6.8282894373492586e-01  -6.7156620341173634e-01  -6.5950546946757571e-01  -3.3686755786634381e-01  -1.5551752272189132e-01  -6.5648981691724817e-01  -2.8697791236303227e-01  1.3584240388654892e-01  3.2323206602252197e-01  6.3259122792759392e-01  1.0055180252023903e+00  8.9226396085438686e-01  3.7828582049573506e-01  1.5011059438656365e-02  -1.7713598646394410e-01  -1.0730185150537017e-01  -4.1742971669379909e-02  -8.4271992248416638e-01  -8.3781451742392166e-01  -4.2079649551845777e-01  4.4740135871605059e-02  5.0339132873100434e-01  1.0180950458009017e+00  1.4090634449043418e+00  1.2335575855658885e+00  5.2285143920155452e-01  -3.3780229757395301e-02  -3.9847672319874383e-01  -2.3318842017842606e-01  -7.9617571620088567e-01  -4.5434784920685195e-01  7.0009807644157443e-02  4.6078078884177787e-01  -7.4081514355793865e-01  -7.5428061266416802e-01  -2.3070263105658337e-01  -2.6496656407707159e-01  -2.9794961974572032e-01  -6.1687058391272387e-01  9.0949134448984481e-01  2.1947637328253894e-01  -3.4560649214889461e-01  9.7881482389182917e-01  1.5099237355974473e+00  1.7303528065222253e+00  1.5805095488597436e+00  -7.2619446040100644e-01  -8.1549585842334044e-02  -1.2657059323133604e-01  -8.1935428711977065e-01  -3.5808592893669056e-01  -1.2450683082171869e-02  -1.1926718664209357e-02  -4.4115515417836804e-01  -3.1730770203062936e-01  -4.1469286149757471e-02  1.2233531270329547e+00  -4.7463731370620953e-02  -2.6755835374237730e-01  -2.5707897299634863e-01  -2.7810452371919697e-01  -7.5815560028973827e-01  -7.3194184203686696e-01  -6.8537863552028144e-01  -7.7886336168355622e-02  -3.4975773953679651e-01  -2.6784462637319931e-02  7.3065195421424889e-01  1.4840599071002475e-01  -3.1220168838952467e-01  -3.2627182136263283e-01  -4.0462047050848904e-01  -4.8892787644670049e-01  2.6230877205388736e-01  -5.4462537218665930e-01  -8.2020167196855820e-01  -7.4061732267927294e-01  1.8273575397018573e+00  1.8832088641703013e+00  1.6962457138524796e+00  1.3217927607688396e+00  -9.5674441672153909e-01  6.3014820657190440e-01  2.1983137000065980e-01  -8.0974627307364822e-01  -9.9008104438680067e-01  -9.0999826045445265e-01  -1.0043179083750868e+00  5.0568138497905056e-02  1.6724654065639888e+00  2.6325898854139951e-01  -1.1089159351928681e+00  -5.7874544799722727e-01  -3.8705668099062068e-01  -1.7822798953715832e-01  2.6242041368470198e-01  -1.9702661763508784e-02  2.4113415048157180e-01  -2.3520961703357832e-01  -7.0887269291343347e-01  -2.9973469683064224e-01  -7.5992625289998572e-01  -6.1274466487691215e-01  -4.6292285394810190e-01  1.4165989563448493e+00  1.3089698777737958e-02  1.0686068658952166e+00  -3.6157851178876571e-01  2.2453815873119110e-01  -9.2877986235923360e-01  -7.3065491825478379e-01  -6.7014654952423958e-01  -7.8823765940423807e-01  9.3290421709243099e-01  -2.7473019336946847e-01  2.0396912068842027e-01  -2.1525650386872547e-01  -6.2565009950600570e-01  -4.3424023152424429e-01  -3.2627064377795184e-01  -2.6402072397591109e-01  1.4744942970846048e-01  -1.8892011809641471e-01  -3.1163428209150912e-01  4.9751379175435290e-01  3.3452138745910087e-01  -1.0624326692775318e-01  1.1173026577615237e-01  -3.1135431655653872e-01  5.2846069274478646e-01  2.1872513920908823e-01  1.5855101509835881e-01  1.5166664165852091e+00  7.6753913342472072e-02  -1.1576233689761484e+00  -3.4146499369230471e-01  1.1277802486854900e+00  -3.8088390868562150e-01  1.5746351967007480e-01  2.0339928486478973e-01  3.3066932692276302e-01  -2.7840649187778477e-01  7.2538212537831104e-01  8.6152274434838982e-01  -3.5914521695368834e-01  -2.6569948527664855e-01  5.7222293016990966e-01  -6.1240960878007611e-01  -4.9520616052648464e-01  -1.0041123189135506e+00  -1.3822682158726474e-01  1.2847763402294382e-01  -6.2723935900349248e-01  -8.6765733955875479e-01  1.2658008833261545e+00  -8.2713547833517798e-01  -8.7353866679925241e-01  1.4354047909577439e-01  4.9195710982426186e-02  1.8451879293564892e+00  1.9483126617251684e-01  1.9355500909754568e+00  1.8656549441767802e+00  1.4921633397009333e+00  1.4801744588037352e-01  7.4188820165060421e-03  4.2100351151493742e-01  1.8952072038995615e-01  2.3059365080338090e-01  -1.0908392249914920e+00  -2.3344320776367354e-02  -1.5684680882686242e-01  1.6485984803204645e-01  -4.4706439483712460e-02  -1.1190846193305641e+00  -4.6734595601834503e-02  -2.0933672573502321e-01  -5.8936168809219802e-01  -7.4409776897147628e-01  -2.9143295696947547e-01  -5.1189146759967064e-01  -4.1650402810589932e-01  7.3455154527051558e-01  -8.9717877591589557e-02  1.2674935389005254e-01  -7.3030342006783189e-01  -5.7806779444402578e-01  2.1365492626962562e-01  -3.4513212146526090e-01  8.8160859603065453e-02  6.8985033281995692e-02  8.2207924658313214e-01  -4.3071953996597678e-01  -1.1777201603531066e-01  -1.2216991598038025e+00  1.1846095474171847e-01  7.0439080260314701e-03  6.0189542485638570e-01  6.5293673965166643e-01  -7.5535557257665853e-01  1.9375587702927879e+00  1.8278643270346995e-01  1.7705016962481308e+00  1.6118053996681985e+00  1.6958057650706664e+00  -3.9824799188626231e-01  -5.5997551705233684e-01  3.3686493044020543e-01  -3.7666184291148980e-01  9.0802184902321748e-01  -1.1535407912331207e-01  -9.9041954678345556e-01  -2.0171960004829170e-01  -7.7512273209778930e-03  1.4267906073158340e-01  -1.2089624722999270e+00  1.2577340978417684e+00  -2.2835683044458643e-01  -9.2668803047906179e-01  -1.2333419091047886e+00  -1.7499537577840639e-02  5.5940799098591587e-01  2.1391944950632309e-02  2.7970650582181542e-02  4.1272984158068099e-01  -7.1938048315008618e-01  -6.9855018496833865e-01  5.3436280015477067e-01  -5.9896226830453714e-01  -4.1570010052900941e-01  -1.0500754138048682e+00  -4.2513201869672645e-01  7.2609897214771146e-01  -3.1271330244433670e-01  -4.4164002500109198e-02  -6.5748801526699663e-01  1.2686473935078970e+00  1.0395109012230333e-01  1.2294991643689439e+00  6.5799495859538826e-01  -4.8371460618705353e-01  -6.4176707217993545e-01  -2.8693363572578978e-01  -7.8068231566974566e-01  -5.5415373231977783e-01  1.1275755369718385e-01  3.6165021101013989e-01  3.6199246661333784e-01  -1.8548088809942079e-02  -1.8081579235203590e-02  3.4583921211719598e-01  3.4162867147391679e-01  -7.7765193924183285e-01  -2.3865613248960632e-01  2.7839930784906886e-01  1.0340607031096541e-01  -3.1171419569294714e-02  -2.0595130099394089e-03  -2.6294658791696363e-01  -2.7222703468733156e-01  -2.6677266306679431e-01  -7.4024362324134607e-01  -2.9001903966368797e-01  1.7382168988565976e+00  -2.9447424597568078e-01  -2.7647146704772474e-01  -7.7306047268485845e-01  -5.7688532467625932e-02  -8.0928403187607578e-02  4.9638888646162305e-01  1.2496426890452119e+00  3.4176051450439315e-01  8.0330177565440877e-02  2.9005821795258211e-02  3.0175354280545869e-01  -6.1593163580918342e-01  -6.8068034044998571e-01  -3.1828968932058554e-01  3.8134787726292751e-01  4.5784577844301000e-01  -5.3189827630807096e-01  1.0846963881108920e+00  1.4199484573709753e+00  2.2558308896575505e-01  1.6759