<?xml version="1.0"?>
<VTKFile type="UnstructuredGrid"  version="0.1"  >
<UnstructuredGrid>
<Piece  NumberOfPoints="5712" NumberOfCells="10893">
<Points>
<DataArray  type="Float64"  NumberOfComponents="3"  format="ascii">0 0 0  0 0.41 0  2.2 0 0  2.2 0.41 0  0.2 0.25 0  0.25 0.2 0  0.2 0.15 0  0.15 0.2 0  0 0.3904761904762147 0  0 0.3709523809524729 0  0 0.3514285714286954 0  0 0.3319047619049458 0  0 0.3123809523811823 0  0 0.2928571428574404 0  0 0.2733333333336768 0  0 0.2538095238099349 0  0 0.2342857142861567 0  0 0.2147619047624078 0  0 0.1952380952385999 0  0 0.1757142857147328 0  0 0.1561904761908952 0  0 0.1366666666670465 0  0 0.1171428571431906 0  0 0.09761904761931661 0  0 0.0780952380954425 0  0 0.05857142857161174 0  0 0.03904761904773757 0  0 0.01952380952386334 0  0.01986745845578998 0 0  0.03982462845278956 0 0  0.05987191195217309 0 0  0.0800097046343772 0 0  0.1002384394563812 0 0  0.1205585077310739 0 0  0.1409703274044529 0 0  0.1614743126654433 0 0  0.1820708739963059 0 0  0.2027604497544275 0 0  0.2235434355718665 0 0  0.2444202633435119 0 0  0.265391361068545 0 0  0.2864571529028895 0 0  0.3076180592107884 0 0  0.3288745151942862 0 0  0.3502269459367295 0 0  0.3716757933139423 0 0  0.3932214934733583 0 0  0.4148644812710909 0 0  0.4366051859408088 0 0  0.4584440653716539 0 0  0.48038154995608 0 0  0.5024180900849111 0 0  0.5245541321026944 0 0  0.5467901197490906 0 0  0.5691265226973262 0 0  0.5915637755827025 0 0  0.614102339850345 0 0  0.636742674167927 0 0  0.6594852330945143 0 0  0.6823304884387933 0 0  0.7052788907288091 0 0  0.7283309147437839 0 0  0.751487030986726 0 0  0.7747477057419434 0 0  0.7981134011315298 0 0  0.821584610595033 0 0  0.8451617959659341 0 0  0.8688454391891771 0 0  0.8926360178861791 0 0  0.9165340281873645 0 0  0.9405399372917173 0 0  0.9646542424736072 0 0  0.9888774365267383 0 0  1.013210007824441 0 0  1.037652440378865 0 0  1.06220524733373 0 0  1.086868914509785 0 0  1.111643945154348 0 0  1.136530838720734 0 0  1.161530116277625 0 0  1.186642266933783 0 0  1.211867807739771 0 0  1.237207251805963 0 0  1.26266110764717 0 0  1.288229902058941 0 0  1.313914143782356 0 0  1.339714360040014 0 0  1.36563107331828 0 0  1.391664802767304 0 0  1.417816093074858 0 0  1.444085461454821 0 0  1.470473442759746 0 0  1.496980573539167 0 0  1.523607398041112 0 0  1.550354449227912 0 0  1.577222271446548 0 0  1.60421140927435 0 0  1.631322413213628 0 0  1.658555830029694 0 0  1.685912218634225 0 0  1.713392126884173 0 0  1.740996123438425 0 0  1.768724751279777 0 0  1.796578588883932 0 0  1.824558192783585 0 0  1.852664140769835 0 0  1.880896988683294 0 0  1.909257322654582 0 0  1.93774570990443 0 0  1.966362727809846 0 0  1.995108970713317 0 0  2.023985006033532 0 0  2.052991427225145 0 0  2.082128822851723 0 0  2.111397799134646 0 0  2.140798904430552 0 0  2.170332790993664 0 0  2.2 0.02928571428565775 0  2.2 0.05857142857131794 0  2.2 0.08785714285694929 0  2.2 0.1171428571425731 0  2.2 0.1464285714282011 0  2.2 0.1757142857138497 0  2.2 0.2049999999994743 0  2.2 0.2342857142852724 0  2.2 0.2635714285710462 0  2.2 0.2928571428568132 0  2.2 0.3221428571426234 0  2.2 0.3514285714283903 0  2.2 0.3807142857142005 0  2.170332790993718 0.41 0  2.140798904430656 0.41 0  2.111397799134855 0.41 0  2.082128822859404 0.41 0  2.052991427232898 0.41 0  2.023985006041361 0.41 0  1.99510897072121 0.41 0  1.966362727817755 0.41 0  1.937745709912357 0.41 0  1.90925732266254 0.41 0  1.880896988691295 0.41 0  1.852664140777879 0.41 0  1.824558192791673 0.41 0  1.79657858889206 0.41 0  1.768724751287952 0.41 0  1.740996123446639 0.41 0  1.713392126892427 0.41 0  1.685912218642533 0.41 0  1.658555830038071 0.41 0  1.631322413222075 0.41 0  1.604211409282859 0.41 0  1.577222271455122 0.41 0  1.55035444923655 0.41 0  1.523607398049813 0.41 0  1.496980573547932 0.41 0  1.470473442768574 0.41 0  1.444085461463712 0.41 0  1.417816093083807 0.41 0  1.391664802776313 0.41 0  1.365631073327341 0.41 0  1.339714360049107 0.41 0  1.31391414379148 0.41 0  1.288229902068097 0.41 0  1.262661107656355 0.41 0  1.237207251815179 0.41 0  1.211867807749015 0.41 0  1.186642266943055 0.41 0  1.161530116286924 0.41 0  1.13653083873006 0.41 0  1.111643945163706 0.41 0  1.086868914519036 0.41 0  1.062205247342763 0.41 0  1.037652440387677 0.41 0  1.013210007833036 0.41 0  0.9888774365351134 0.41 0  0.9646542424817568 0.41 0  0.9405399372996428 0.41 0  0.916534028195068 0.41 0  0.8926360178936621 0.41 0  0.8688454391964415 0.41 0  0.8451617959729809 0.41 0  0.8215846106018625 0.41 0  0.7981134011381465 0.41 0  0.7747477057483507 0.41 0  0.7514870309929218 0.41 0  0.7283309147497725 0.41 0  0.7052788907345926 0.41 0  0.6823304884443711 0.41 0  0.6594852330998913 0.41 0  0.6367426741731019 0.41 0  0.6141023398553211 0.41 0  0.5915637755874821 0.41 0  0.5691265227019089 0.41 0  0.5467901197534788 0.41 0  0.5245541321068876 0.41 0  0.5024180900889137 0.41 0  0.4803815499598949 0.41 0  0.458444065375283 0.41 0  0.4366051859442526 0.41 0  0.4148644812743503 0.41 0  0.3932214934764355 0.41 0  0.3716757933168389 0.41 0  0.3502269459394474 0.41 0  0.3288745151968251 0.41 0  0.3076180592131517 0.41 0  0.2864571529050777 0.41 0  0.2653913610705745 0.41 0  0.2444202633453989 0.41 0  0.2235434355736121 0.41 0  0.202760449756034 0.41 0  0.1820708739977555 0.41 0  0.1614743126667344 0.41 0  0.140970327405586 0.41 0  0.120558507732039 0.41 0  0.1002384394571796 0.41 0  0.08000970463500767 0.41 0  0.05987191195264252 0.41 0  0.03982462845310097 0.41 0  0.01986745845594617 0.41 0  0.2009941093832422 0.2499901164885035 0  0.2019878257548352 0.2499604698613656 0  0.2029807562584742 0.2499110718390977 0  0.2039725083485626 0.2498419419507366 0  0.2049626899453778 0.2497531075261239 0  0.2059509095900689 0.2496446036851018 0  0.2069367765994233 0.2495164733236293 0  0.2079199012203332 0.2493687670968211 0  0.208899894783849 0.2492015433989262 0  0.209876369858873 0.2490148683402368 0  0.2108489404052936 0.2488088157209575 0  0.2118172219266183 0.248583467002027 0  0.2127808316219855 0.248338911272912 0  0.2137393885375067 0.2480752452163837 0  0.2146925137168532 0.2477925730703012 0  0.2156398303510693 0.247491006586403 0  0.2165809639275547 0.2471706649861239 0  0.2175155423781385 0.2468316749134561 0  0.2184431962261471 0.2464741703848905 0  0.2193635587324768 0.2460982927364335 0  0.2202762660405913 0.2457041905677276 0  0.2211809573203641 0.2452920196833053 0  0.2220772749107273 0.2448619430309942 0  0.2229648644610677 0.2444141306374986 0  0.2238433750713457 0.2439487595411649 0  0.2247124594307593 0.2434660137220228 0  0.2255717739550953 0.2429660840290282 0  0.2264209789225549 0.2424491681046155 0  0.227259738608055 0.2419154703065648 0  0.2280877214159585 0.2413652016272072 0  0.2289046000111568 0.2407985796100187 0  0.2297100514485014 0.2402158282636004 0  0.2305037573004443 0.2396171779731418 0  0.2312854037829426 0.2390028654093291 0  0.2320546818795267 0.2383731334347658 0  0.2328112874634348 0.2377282310079845 0  0.2335549214178666 0.2370684130850081 0  0.2342852897542382 0.2363939405185524 0  0.23500210372839 0.2357050799549172 0  0.2357050799547543 0.2350021037285561 0  0.236393940518396 0.2342852897544042 0  0.2370684130848552 0.2335549214180355 0  0.2377282310078377 0.2328112874636036 0  0.2383731334346237 0.2320546818796969 0  0.2390028654091947 0.2312854037831102 0  0.2396171779730177 0.2305037573006055 0  0.2402158282634863 0.2297100514486559 0  0.2407985796099098 0.2289046000113105 0  0.2413652016271038 0.2280877214161108 0  0.2419154703064672 0.2272597386082051 0  0.2424491681045289 0.2264209789226942 0  0.2429660840289533 0.2255717739552211 0  0.2434660137219522 0.2247124594308835 0  0.2439487595410967 0.2238433750714713 0  0.2444141306374335 0.2229648644611936 0  0.2448619430309386 0.2220772749108404 0  0.2452920196832561 0.2211809573204692 0  0.2457041905676833 0.2202762660406911 0  0.2460982927363924 0.2193635587325747 0  0.246474170384854 0.2184431962262392 0  0.2468316749134214 0.2175155423782314 0  0.2471706649860917 0.216580963927646 0  0.2474910065863757 0.215639830351152 0  0.2477925730702761 0.2146925137169349 0  0.2480752452163603 0.2137393885375889 0  0.2483389112728914 0.2127808316220633 0  0.248583467002012 0.2118172219266803 0  0.2488088157209458 0.2108489404053462 0  0.2490148683402261 0.2098763698589259 0  0.249201543398917 0.2088998947838999 0  0.2493687670968142 0.2079199012203759 0  0.2495164733236233 0.2069367765994661 0  0.2496446036850975 0.205950909590105 0  0.2497531075261207 0.2049626899454101 0  0.2498419419507343 0.2039725083485922 0  0.2499110718390968 0.2029807562584889 0  0.2499604698613655 0.2019878257548365 0  0.2499901164885035 0.2009941093832422 0  0.2499901164885035 0.1990058906167579 0  0.2499604698613656 0.1980121742451648 0  0.2499110718390977 0.1970192437415259 0  0.2498419419507366 0.1960274916514374 0  0.2497531075261239 0.1950373100546222 0  0.2496446036851018 0.1940490904099311 0  0.2495164733236293 0.1930632234005767 0  0.2493687670968211 0.1920800987796668 0  0.2492015433989262 0.191100105216151 0  0.2490148683402368 0.190123630141127 0  0.2488088157209575 0.1891510595947065 0  0.248583467002027 0.1881827780733817 0  0.248338911272912 0.1872191683780146 0  0.2480752452163837 0.1862606114624933 0  0.2477925730703012 0.1853074862831468 0  0.247491006586403 0.1843601696489307 0  0.2471706649861239 0.1834190360724454 0  0.2468316749134561 0.1824844576218615 0  0.2464741703848905 0.181556803773853 0  0.2460982927364335 0.1806364412675232 0  0.2457041905677276 0.1797237339594087 0  0.2452920196833053 0.1788190426796359 0  0.2448619430309942 0.1779227250892727 0  0.2444141306374986 0.1770351355389324 0  0.2439487595411649 0.1761566249286543 0  0.2434660137220228 0.1752875405692407 0  0.2429660840290282 0.1744282260449047 0  0.2424491681046155 0.1735790210774451 0  0.2419154703065648 0.172740261391945 0  0.2413652016272072 0.1719122785840415 0  0.2407985796100187 0.171095
[...]
<PointData  Scalars="f_19"> 
<DataArray  type="Float64"  Name="f_19"  format="ascii">5.3300349792069457e-01  5.0400506688663971e-01  0.0000000000000000e+00  0.0000000000000000e+00  -9.0788904746387222e-01  -4.3127053831909096e-01  -9.2211045232962741e-01  2.0009219407584107e+00  5.0399799081954333e-01  5.0807774377030768e-01  5.2118177590734860e-01  5.4640341644457147e-01  5.8571612035449894e-01  6.3695291380845254e-01  6.9633037341200399e-01  7.5638466130456294e-01  8.0807663009955522e-01  8.4110089857068537e-01  8.4858503640106098e-01  8.3025286527737296e-01  7.8954588685314797e-01  7.3489840853705901e-01  6.7723937773128373e-01  6.2461214037434132e-01  5.8292281897237497e-01  5.5457266150539075e-01  5.3867410016222828e-01  5.3318753731430601e-01  5.3183843745943760e-01  5.2822032268062480e-01  5.2076176478485581e-01  5.0832481116171224e-01  4.8950199134255468e-01  4.6307892596669475e-01  4.2838091624510904e-01  3.8595212513604871e-01  3.3795749938966202e-01  2.8814058152461064e-01  2.4152816135868593e-01  2.0356433924673248e-01  1.7773758155470856e-01  1.6511737465972312e-01  1.6646582459780873e-01  1.8199303994218377e-01  2.0622216096898266e-01  2.3104443262535265e-01  2.5787711230118937e-01  2.7939416480205109e-01  2.9039601854205949e-01  2.9023577666778655e-01  2.7285563006108643e-01  2.4115971904531716e-01  1.9861404394173016e-01  1.5234011173412190e-01  1.1402643827651469e-01  9.4777825578242880e-02  9.1137677491966246e-02  1.0385770822288670e-01  1.2654037508109348e-01  1.5207516512514316e-01  1.8324767493448871e-01  2.1991708408876820e-01  2.6200912380449937e-01  2.9830516809756114e-01  3.2275928470021159e-01  3.3480343940190554e-01  3.3261612621077069e-01  3.2138562852177921e-01  3.0341493270711678e-01  2.7865475147086466e-01  2.4932893677838597e-01  2.1076651984271186e-01  1.6793299104273002e-01  1.2036877344451324e-01  7.8709980427090112e-02  5.2503866723987110e-02  4.4673655712562987e-02  8.4893446105634082e-02  1.4270178996529548e-01  2.1139030649187640e-01  2.6616903571221096e-01  3.0143749380882151e-01  3.0883602933733001e-01  2.9767537986729081e-01  2.7043473333522750e-01  2.3081426902840735e-01  1.7449743878923321e-01  1.1023795585942082e-01  4.8373156726017899e-02  3.8491256505048118e-04  -1.7111071623707168e-02  -1.1063839459057885e-04  3.5535242377771351e-02  9.0730951926557210e-02  1.4314093717240040e-01  1.8446728341496532e-01  2.0864058607866143e-01  2.1464207600279400e-01  2.0057259322361110e-01  1.6883196559924304e-01  1.2611088691534561e-01  7.4394260427653763e-02  2.1724895132663388e-02  -1.5417920560747329e-02  -3.5083155808710895e-02  -2.9768157620854229e-02  -1.5100023024486363e-03  3.9176331447036382e-02  8.0779258335592602e-02  1.1497691878701810e-01  1.3864678020630061e-01  1.4489493390433703e-01  1.3475243525936917e-01  1.1204543071912737e-01  7.9203587794690777e-02  4.3328844371444977e-02  1.6113273428982521e-02  0.0000000000000000e+00  0.0000000000000000e+00  0.0000000000000000e+00  0.0000000000000000e+00  0.0000000000000000e+00  0.0000000000000000e+00  0.0000000000000000e+00  0.0000000000000000e+00  0.0000000000000000e+00  0.0000000000000000e+00  0.0000000000000000e+00  0.0000000000000000e+00  0.0000000000000000e+00  -1.1488819308624180e-03  -1.2410072634671835e-02  -3.0450265718667224e-02  -5.0296390670555600e-02  -6.6283942148135197e-02  -6.7641885347226427e-02  -5.1665078107028521e-02  -1.8450613100178162e-02  2.8370861333495166e-02  7.2766007867183180e-02  1.1572127974396267e-01  1.4525759913940947e-01  1.5678202049077358e-01  1.5380514936625844e-01  1.3220228689262462e-01  9.8458065549693441e-02  5.6066339788352737e-02  1.6326134581648680e-02  -1.5249579062978363e-02  -2.5466419078679265e-02  -5.9010853655466098e-03  3.5842504124763572e-02  9.3134557039734459e-02  1.5371807724322675e-01  2.0670856693419437e-01  2.4123701507092801e-01  2.6294796347747817e-01  2.6108205451516231e-01  2.3846176211433126e-01  1.9525596620663058e-01  1.3415656506259255e-01  6.8604996905162641e-02  1.7471055441053127e-02  -2.1422177595654462e-03  1.7547636380979392e-02  6.1468076255435107e-02  1.2043211406908839e-01  1.7462449683936859e-01  2.2250319955538006e-01  2.6235751732008217e-01  2.9585300028078898e-01  3.1671994783863716e-01  3.2877136896995446e-01  3.2345971600993001e-01  2.9330097813521744e-01  2.4598029062161234e-01  1.8552497588722200e-01  1.3583405739932955e-01  1.0363390538059709e-01  9.9287525172309751e-02  1.1347870780856306e-01  1.3893986848879397e-01  1.6992532681372974e-01  2.0050789340432953e-01  2.3424852843034596e-01  2.7206131956842211e-01  3.1515479429052051e-01  3.5717224552968624e-01  3.9328557771619765e-01  4.1157845919933439e-01  4.0828535182247039e-01  3.8751476498402787e-01  3.4925520413145139e-01  2.9870720711646920e-01  2.3746148996672697e-01  1.8143716629784254e-01  1.2897246450901081e-01  8.9742041567568806e-02  6.5633493449134342e-02  5.6640141773691526e-02  5.7868988793925852e-02  6.6631038529363834e-02  7.9926315725478675e-02  9.7425567558040466e-02  1.2195507210795042e-01  1.5012552575229299e-01  1.8658622484687964e-01  2.2844922351174696e-01  2.7292154463298701e-01  3.2088104070492879e-01  3.6573573149375843e-01  4.0563077580399848e-01  4.3820068840516230e-01  4.6315541323552006e-01  4.7933596826802904e-01  4.9086828392949494e-01  4.9691406120735582e-01  5.0147663974980228e-01  5.0281536952600892e-01  -8.9167245653365212e-01  -8.7490481773219042e-01  -8.5773506349230721e-01  -8.4021042000657908e-01  -8.2238546512478006e-01  -8.0426951459721352e-01  -7.8618878467959430e-01  -7.6810154537644437e-01  -7.5023013196440935e-01  -7.3256246882385845e-01  -7.1518260033057657e-01  -6.9798162755350368e-01  -6.8146070543435178e-01  -6.6512599672987482e-01  -6.4919690116911544e-01  -6.3387958008043133e-01  -6.1904067778568850e-01  -6.0482937683906279e-01  -5.9109081223498983e-01  -5.7796834179327272e-01  -5.6543118662847469e-01  -5.5352567767500327e-01  -5.4205664387919095e-01  -5.3107942077621739e-01  -5.2071018636708533e-01  -5.1081892361587622e-01  -5.0149072180814347e-01  -4.9262726892086295e-01  -4.8429793367333307e-01  -4.7640495416296180e-01  -4.6907427743503444e-01  -4.6221943265448417e-01  -4.5582815556029116e-01  -4.4996890510157622e-01  -4.4464935613126783e-01  -4.3983987901015453e-01  -4.3557667333181022e-01  -4.3186589141875237e-01  -4.2867547894724672e-01  -4.2603117140115510e-01  -4.2389682100404102e-01  -4.2227081922339205e-01  -4.2112380945799993e-01  -4.2042704699673694e-01  -4.2014572198661793e-01  -4.2024109806878529e-01  -4.2067279964355042e-01  -4.2139106357281148e-01  -4.2238983015202014e-01  -4.2358586313151669e-01  -4.2494987238582932e-01  -4.2644093986666487e-01  -4.2802820629513777e-01  -4.2968488883714684e-01  -4.3134752737200738e-01  -4.3302362317169324e-01  -4.3466031154410961e-01  -4.3617926541062901e-01  -4.3761855732325011e-01  -4.3895586215478122e-01  -4.4015681944448981e-01  -4.4119175988262227e-01  -4.4206912975968521e-01  -4.4274817654143173e-01  -4.4323782734897199e-01  -4.4350239535619618e-01  -4.4357977963582157e-01  -4.4340959143555020e-01  -4.4305354929074442e-01  -4.4250129439955410e-01  -4.4172399290153574e-01  -4.4077272195686046e-01  -4.3969031935620545e-01  -4.3844559740597727e-01  -4.3711590397620687e-01  -4.3569641288886823e-01  -4.3423262979098887e-01  -4.3273089547734356e-01  -4.2987510238259419e-01  -4.2851542568836043e-01  -4.2732262111198316e-01  -4.2632517148169929e-01  -4.2551522381664619e-01  -4.2485070302357297e-01  -4.2446752275558647e-01  -4.2439898720462377e-01  -4.2462319743621785e-01  -4.2515144534966021e-01  -4.2603463034515315e-01  -4.2726829705419406e-01  -4.2879231488437464e-01  -4.3075451228866191e-01  -4.3304693267088296e-01  -4.3567452215155256e-01  -4.3863193143682550e-01  -4.4191818553774753e-01  -4.4552841097729684e-01  -4.4935246944244761e-01  -4.5351989459837183e-01  -4.5799205868323645e-01  -4.6253441718671812e-01  -4.6739881261814725e-01  -4.7228965500690540e-01  -4.7741670261186003e-01  -4.8258822223758946e-01  -4.8784937870794576e-01  -4.9312612977599335e-01  -4.9839178754894947e-01  -5.0371025748673459e-01  -5.0891910211419755e-01  -5.1414104317085607e-01  -5.1926248128997143e-01  -5.2433863413550119e-01  -5.2931225162552897e-01  -5.3424090759657872e-01  -5.3907964864128544e-01  -5.4389979107407016e-01  -5.4865604934599332e-01  -5.5342627951836432e-01  -5.5818061531855179e-01  -5.6300814599386417e-01  -5.6793228275394192e-01  -5.7294482509556632e-01  -5.7807948417552157e-01  -5.8346853428916534e-01  -5.8906845209890457e-01  -5.9495237901478459e-01  -6.0113372700907164e-01  -6.0759832196848729e-01  -6.1451166551659175e-01  -6.2176873955643164e-01  -6.2942343749823848e-01  -6.3756475807551549e-01  -6.4607153672065287e-01  -6.5513216273253738e-01  -6.6456502056832467e-01  -6.7442983643527232e-01  -6.8493306322497471e-01  -6.9568792179470318e-01  -7.0685470540840756e-01  -7.1848722764037309e-01  -7.3056169957180972e-01  -7.4290723143911552e-01  -7.5563070798226672e-01  -7.6861026905000229e-01  -7.8190581371934531e-01  -7.9524233920083254e-01  -8.0862847778593838e-01  -8.2218488165111570e-01  -8.3559958236288001e-01  -8.4907018595907868e-01  -8.6243014563281384e-01  -8.7529056899439395e-01  -8.8769826071347357e-01  -8.9974896894874568e-01  -9.1133561046229661e-01  -9.3211336219395946e-01  -9.4120922666475593e-01  -9.4932912134817105e-01  -9.5620235131862763e-01  -9.6176631611967900e-01  -9.6592829856045537e-01  -9.6867194224373321e-01  -9.6989482237041380e-01  -9.6928857217442999e-01  -9.6692187448347244e-01  -9.6253099763896044e-01  -9.5644276513390225e-01  -9.4808630722986276e-01  -9.3785026274149241e-01  -9.2527680155057634e-01  -9.1022189511375851e-01  -8.9306109802950184e-01  -8.7352293504206413e-01  -8.5174737356329910e-01  -8.2732891338467851e-01  -8.0067377285394781e-01  -7.7141821614431350e-01  -7.3970971061328539e-01  -7.0577702916949103e-01  -6.6933819254308258e-01  -6.3075411660977909e-01  -5.8936949869813149e-01  -5.4586176999939529e-01  -5.0028394801172549e-01  -4.5237108485140903e-01  -4.0251578157769463e-01  -3.5042933103237706e-01  -2.9658999039669204e-01  -2.4059036019273181e-01  -1.8319704096422074e-01  -1.2379337206210177e-01  -6.3107287580969673e-02  -6.9647769748364076e-04  6.2675636114514946e-02  1.2741881139273617e-01  1.9343824254542474e-01  2.6005940928694021e-01  3.2721357135395990e-01  3.9548462081073343e-01  4.6415568108173327e-01  5.3288860737957300e-01  6.0205826108215599e-01  6.7111449648217414e-01  7.3983286714606211e-01  8.0859282228069329e-01  8.7660772342682047e-01  9.4428346552240716e-01  1.0109056931527194e+00  1.0768162350287669e+00  1.1412598425605522e+00  1.2047808936620503e+00  1.2668532335695859e+00  1.3271693535220990e+00  1.3856660512064125e+00  1.4425133186513546e+00  1.4972933150327485e+00  1.5495488135460345e+00  1.5999216327627555e+00  1.6475877789805802e+00  1.6928697572406919e+00  1.7352799854500480e+00  1.7750401902060224e+00  1.8121059616390645e+00  1.8456441885491623e+00  1.8759565201441097e+00  1.9040339808117335e+00  1.9278950558161356e+00  1.9487101952956840e+00  1.9662917943250078e+00  1.9799143752593416e+00  1.9909232709378339e+00  1.9976771832957474e+00  2.0010592674215308e+00  1.9972265452538029e+00  1.9900045276685834e+00  1.9792813626826926e+00  1.9650785281228444e+00  1.9473678568763351e+00  1.9257061482372395e+00  1.9009929930106084e+00  1.8733536782210372e+00  1.8422209260338491e+00  1.8077237670273933e+00  1.7702564877232503e+00  1.7296639117798223e+00  1.6864303470353250e+00  1.6401643514557358e+00  1.5914386136225553e+00  1.5399085696275778e+00  1.4862153927889334e+00  1.4300028977605856e+00  1.3719638172567019e+00  1.3117252928992482e+00  1.2499041837572462e+00  1.1860789353018784e+00  1.1209738233183140e+00  1.0543120346709165e+00  9.8674238915262902e-01  9.1789674020760370e-01  8.4834338970005374e-01  7.7795369030080996e-01  7.0735025222267955e-01  6.3621054605026328e-01  5.6475908898875427e-01  4.9364227996120225e-01  4.2251989039233340e-01  3.5173353670845264e-01  2.8137318375728748e-01  2.1167451158996536e-01  1.4277606545261687e-01  7.4770140902942095e-02  8.2007550412727427e-03  -5.7387202429794781e-02  -1.2131673892353155e-01  -1.8413852224616409e-01  -2.4515969540831833e-01  -3.0392181947280178e-01  -3.6129831691511433e-01  -4.1641289384244812e-01  -4.6960928655326944e-01  -5.2078745865741904e-01  -5.6920888992023111e-01  -6.1534563481643567e-01  -6.5911661491904650e-01  -7.0066945437355233e-01  -7.3935502471295589e-01  -7.7573945849134252e-01  -8.0914874496331901e-01  -8.4013862275763429e-01  -8.6828439457046869e-01  -8.9397667918602874e-01  -9.1686497221092944e-01  -9.3730542280281715e-01  -9.5488197038904177e-01  -9.6988403117008926e-01  -9.8235201121550475e-01  -9.9247420049297175e-01  -1.0001223669297452e+00  -1.0053469615102129e+00  -1.0084002826908378e+00  -1.0095323415698847e+00  -1.0084923253272431e+00  -1.0049908616981975e+00  -1.0001784235103082e+00  -9.9347697248272215e-01  -9.8514834344722180e-01  -9.7527662362000334e-01  -9.6403031161079156e-01  -9.5153975352032938e-01  -9.3792205676507645e-01  -9.2339078011247933e-01  -1.2068765981959190e-02  -4.3459267937081936e-01  -4.5948386635731386e-01  -1.0996816291547940e-02  -4.7524831664825115e-02  2.0669028215115670e-01  5.5102719528687194e-01  9.7194623125539548e-01  9.5675149022190831e-01  4.8923067476757420e-01  1.5589648968997827e-01  -6.8583689580156826e-01  -3.7824440680473098e-01  -2.1111259363924484e-01  -4.8414664775163868e-01  -4.7174245371152884e-01  -2.2600970026263403e-01  -1.1449474064615620e-01  3.8201307474817547e-01  9.2951130105091839e-01  1.3964578536623646e+00  1.3086082774306840e+00  6.5926017997187347e-01  1.3305359690758389e-01  -4.7369851436038407e-01  -3.9157716641101808e-01  -4.8663997415427379e-01  -2.5093848965063065e-01  -1.0874000474035315e-01  2.9493608659228610e-01  -5.3560276154877939e-01  -5.3285604249184326e-01  -3.8094116894827029e-01  -4.5040068750205181e-01  -5.0245382060016097e-01  -4.4610712100426964e-01  1.0523239667648845e+00  4.1694739980103690e-01  -1.1635838614790046e-01  8.3821915708317074e-01  1.4351347231676805e+00  1.7309631138010697e+00  1.6559595580244684e+00  -4.7152996051863522e-01  -6.3706873017413165e-02  3.0956056172571366e-02  -5.6825369289273209e-01  -5.8225464237806235e-01  -1.5806609278890306e-02  1.7198946953163870e-02  -4.3976806089194076e-01  -4.2366648086174058e-01  -3.4863081444964202e-02  1.3638749718071272e+00  -1.6571026581660851e-03  -4.0498607271842069e-01  -4.0418327615940397e-01  -4.4202299864700090e-01  -5.5213502710345641e-01  -4.9459957873123489e-01  -4.5137278504245831e-01  -3.1367941836190003e-02  -5.8829004287763986e-01  -2.4888491612486549e-01  9.2590569590415472e-01  3.8449939664903016e-01  -5.4798248754495023e-02  -5.1574051537289378e-01  -6.2228744257216939e-01  -7.2834824488917360e-01  4.5108586134344084e-02  -4.3553985855083510e-01  -5.8583138075669605e-01  -5.2327738398209911e-01  1.8628668611474160e+00  1.8642749876203824e+00  1.6167425160222222e+00  1.1920458347127088e+00  -6.7452432051264377e-01  4.3040499016652556e-01  2.8510116168262917e-01  -5.1471502915383094e-01  -6.8795475174549114e-01  -6.4673951996302348e-01  -7.1652523250315725e-01  3.0594224569088407e-01  1.7634515778072848e+00  7.6477708609794359e-02  -7.9730459981340829e-01  -8.3665915204931363e-01  -4.3712002812688616e-01  1.3183658193912234e-01  1.5851077504160049e-01  9.4474848352063309e-02  1.7739192171717783e-01  -4.3915034484545139e-02  -4.6440874438408192e-01  -4.2375753282480072e-01  -5.4392993404849266e-01  -4.3456392826849277e-01  -4.3722386367804211e-01  1.5534411187915140e+00  1.2334173982611288e-01  1.2472619564857286e+00  7.8591959380371154e-02  9.3248343388612459e-02  -1.7710115154631284e-01  -4.8847162893651802e-01  -4.4310071123962319e-01  -5.6630124600868803e-01  7.4677426244157752e-01  -4.3359878705857402e-01  -1.3049058392775916e-02  1.2302065603420277e-01  -8.9547612529960896e-01  -6.9737980846471370e-01  -5.9194580582534373e-01  -4.1340718761317885e-01  -7.1635199111184142e-02  1.5424193653774704e-01  -4.8908416541436567e-01  4.0535035330164487e-01  2.1011487609998575e-01  1.3720105928426557e-01  -1.3174835366954610e-01  -3.1489989883660197e-02  6.2262946376279205e-01  3.7173952784556330e-01  6.8403687811015260e-02  1.3920969395291090e+00  -1.3310614766821616e-01  -8.3997490987857548e-01  -4.3512072452703765e-01  1.1595623449798762e+00  -5.8458053300883550e-01  3.2181260781129545e-01  -3.0806197691517562e-02  5.6987975142505687e-01  -4.2077689394980472e-01  9.3783199690969365e-01  9.6380092027982400e-01  -1.0794026464986188e+00  -4.2230730399214905e-01  6.7315679821694274e-01  -8.8891459630407854e-01  -7.3046811666645761e-01  -4.3579860254991287e-01  -3.9872073201042857e-01  -1.1842461049271995e-01  -3.2718040967345818e-01  -5.5322912200115948e-01  1.1062493454739954e+00  -5.9317221013147026e-01  -6.2518454693840264e-01  -2.0088429478846892e-01  2.9728138630422091e-01  1.7849757033294917e+00  3.5406476677323512e-01  1.9478534117584925e+00  1.9188531916252305e+00  1.5257913514044221e+00  2.9263792924122523e-01  -2.2513808834977456e-01  2.4449658735452406e-01  2.4117206148817547e-02  9.2415489697898756e-02  -7.6587970598824928e-01  1.2926311531792273e-01  -3.4413963102437073e-01  2.4208127648116054e-01  -1.8606636632302989e-01  -8.1005415892886301e-01  -5.4229117420682660e-01  6.3913622391487027e-02  -8.4527263956963739e-01  -5.0952391802774177e-01  -4.5909760933015753e-01  -4.3388569864496956e-01  -4.3934377773688899e-01  6.7162032705585717e-01  -8.2004274511794123e-02  2.1100986880717656e-01  -4.9123792862986215e-01  -7.5498545545876061e-01  3.3461957730484077e-01  -5.3483355696538293e-01  -2.1513029595158807e-03  -2.3071745230851243e-01  7.5409414783295459e-01  -6.4756333423739065e-01  -7.2990269240250510e-02  -8.9011603547885521e-01  1.3066424783335945e-01  2.7351100184131288e-01  5.2369161903151740e-01  4.3659773918418954e-01  -5.2742741874397980e-01  1.9139832382550921e+00  2.2846021368649097e-01  1.8541470539255285e+00  1.7272331453153591e+00  1.5946260718112950e+00  -1.7853661112342403e-01  -4.3081299768760961e-01  9.9034596471015632e-02  -4.3991663511579981e-01  9.1742077316813286e-01  1.8573321174651639e-01  -7.0974312690791319e-01  -4.8672614585547030e-01  -2.7199875487563463e-01  -6.9773349397369419e-05  -8.7429374139789762e-01  1.2015654548704753e+00  -3.7237587878445882e-01  -6.6380401240358899e-01  -9.0327200791295947e-01  1.7912898246904496e-01  4.7949519088284559e-01  -3.1849226719319959e-02  2.2397592194440966e-01  5.1214369624112099e-01  -4.6729455609502668e-01  -4.5090258519122123e-01  7.1734951397880176e-01  -4.7847884767069815e-01  -5.8556595224493246e-01  -7.5659499026679100e-01  -1.8200615372158158e-01  6.1275523614568894e-01  -4.3303138455823881e-01  3.0887620026143472e-03  -9.2742660972218016e-01  1.3705888705652138e+00  8.7121048382400659e-02  1.3976530545943155e+00  4.8824633642525056e-01  -7.6224839109029519e-01  -4.3360195737082630e-01  -4.3542149023476401e-01  -5.5823246903030366e-01  -8.0035209589041967e-01  4.0222723069702571e-01  -1.1446579864701970e-01  2.9122529794547747e-01  1.1461753525149488e-02  -1.8096837480879738e-01  6.7370210926894505e-02  4.4517963036153180e-01  -4.6534142118237959e-01  -4.0791128524295278e-01  1.3616718004252959e-01  1.6546342230043065e-01  -9.6692424224554568e-02  1.9441341475356386e-01  -4.2010704328421855e-01  -4.3318895362551324e-01  -4.1938412441279627e-01  -4.9390668943219407e-01  -4.2754210249360736e-01  1.7009775252149033e+00  -4.9290456152454248e-01  1.6307392481446423e-01  -5.1218865001779390e-01  1.1890396849813413e-01  1.4697912826666349e-03  7.3136360689043134e-01  1.1450213468210639e+00  2.7788145849177998e-01  7.2880327764673167e-02  3.4981000819768099e-01  1.6479252735148583e-01  -8.9814532433546568e-01  -9.6141988779110765e-01  -5.9178665922141116e-01  2.6774117559289612e-01  3.6208026926473413e-01  -2.3139355959432847e-01  9.0170739882616990e-01  1.2734622449961999e+00  5.0659049288321524e-02  1.71129258250302