<?xml version="1.0"?>
<VTKFile type="UnstructuredGrid"  version="0.1"  >
<UnstructuredGrid>
<Piece  NumberOfPoints="5712" NumberOfCells="10893">
<Points>
<DataArray  type="Float64"  NumberOfComponents="3"  format="ascii">0 0 0  0 0.41 0  2.2 0 0  2.2 0.41 0  0.2 0.25 0  0.25 0.2 0  0.2 0.15 0  0.15 0.2 0  0 0.3904761904762147 0  0 0.3709523809524729 0  0 0.3514285714286954 0  0 0.3319047619049458 0  0 0.3123809523811823 0  0 0.2928571428574404 0  0 0.2733333333336768 0  0 0.2538095238099349 0  0 0.2342857142861567 0  0 0.2147619047624078 0  0 0.1952380952385999 0  0 0.1757142857147328 0  0 0.1561904761908952 0  0 0.1366666666670465 0  0 0.1171428571431906 0  0 0.09761904761931661 0  0 0.0780952380954425 0  0 0.05857142857161174 0  0 0.03904761904773757 0  0 0.01952380952386334 0  0.01986745845578998 0 0  0.03982462845278956 0 0  0.05987191195217309 0 0  0.0800097046343772 0 0  0.1002384394563812 0 0  0.1205585077310739 0 0  0.1409703274044529 0 0  0.1614743126654433 0 0  0.1820708739963059 0 0  0.2027604497544275 0 0  0.2235434355718665 0 0  0.2444202633435119 0 0  0.265391361068545 0 0  0.2864571529028895 0 0  0.3076180592107884 0 0  0.3288745151942862 0 0  0.3502269459367295 0 0  0.3716757933139423 0 0  0.3932214934733583 0 0  0.4148644812710909 0 0  0.4366051859408088 0 0  0.4584440653716539 0 0  0.48038154995608 0 0  0.5024180900849111 0 0  0.5245541321026944 0 0  0.5467901197490906 0 0  0.5691265226973262 0 0  0.5915637755827025 0 0  0.614102339850345 0 0  0.636742674167927 0 0  0.6594852330945143 0 0  0.6823304884387933 0 0  0.7052788907288091 0 0  0.7283309147437839 0 0  0.751487030986726 0 0  0.7747477057419434 0 0  0.7981134011315298 0 0  0.821584610595033 0 0  0.8451617959659341 0 0  0.8688454391891771 0 0  0.8926360178861791 0 0  0.9165340281873645 0 0  0.9405399372917173 0 0  0.9646542424736072 0 0  0.9888774365267383 0 0  1.013210007824441 0 0  1.037652440378865 0 0  1.06220524733373 0 0  1.086868914509785 0 0  1.111643945154348 0 0  1.136530838720734 0 0  1.161530116277625 0 0  1.186642266933783 0 0  1.211867807739771 0 0  1.237207251805963 0 0  1.26266110764717 0 0  1.288229902058941 0 0  1.313914143782356 0 0  1.339714360040014 0 0  1.36563107331828 0 0  1.391664802767304 0 0  1.417816093074858 0 0  1.444085461454821 0 0  1.470473442759746 0 0  1.496980573539167 0 0  1.523607398041112 0 0  1.550354449227912 0 0  1.577222271446548 0 0  1.60421140927435 0 0  1.631322413213628 0 0  1.658555830029694 0 0  1.685912218634225 0 0  1.713392126884173 0 0  1.740996123438425 0 0  1.768724751279777 0 0  1.796578588883932 0 0  1.824558192783585 0 0  1.852664140769835 0 0  1.880896988683294 0 0  1.909257322654582 0 0  1.93774570990443 0 0  1.966362727809846 0 0  1.995108970713317 0 0  2.023985006033532 0 0  2.052991427225145 0 0  2.082128822851723 0 0  2.111397799134646 0 0  2.140798904430552 0 0  2.170332790993664 0 0  2.2 0.02928571428565775 0  2.2 0.05857142857131794 0  2.2 0.08785714285694929 0  2.2 0.1171428571425731 0  2.2 0.1464285714282011 0  2.2 0.1757142857138497 0  2.2 0.2049999999994743 0  2.2 0.2342857142852724 0  2.2 0.2635714285710462 0  2.2 0.2928571428568132 0  2.2 0.3221428571426234 0  2.2 0.3514285714283903 0  2.2 0.3807142857142005 0  2.170332790993718 0.41 0  2.140798904430656 0.41 0  2.111397799134855 0.41 0  2.082128822859404 0.41 0  2.052991427232898 0.41 0  2.023985006041361 0.41 0  1.99510897072121 0.41 0  1.966362727817755 0.41 0  1.937745709912357 0.41 0  1.90925732266254 0.41 0  1.880896988691295 0.41 0  1.852664140777879 0.41 0  1.824558192791673 0.41 0  1.79657858889206 0.41 0  1.768724751287952 0.41 0  1.740996123446639 0.41 0  1.713392126892427 0.41 0  1.685912218642533 0.41 0  1.658555830038071 0.41 0  1.631322413222075 0.41 0  1.604211409282859 0.41 0  1.577222271455122 0.41 0  1.55035444923655 0.41 0  1.523607398049813 0.41 0  1.496980573547932 0.41 0  1.470473442768574 0.41 0  1.444085461463712 0.41 0  1.417816093083807 0.41 0  1.391664802776313 0.41 0  1.365631073327341 0.41 0  1.339714360049107 0.41 0  1.31391414379148 0.41 0  1.288229902068097 0.41 0  1.262661107656355 0.41 0  1.237207251815179 0.41 0  1.211867807749015 0.41 0  1.186642266943055 0.41 0  1.161530116286924 0.41 0  1.13653083873006 0.41 0  1.111643945163706 0.41 0  1.086868914519036 0.41 0  1.062205247342763 0.41 0  1.037652440387677 0.41 0  1.013210007833036 0.41 0  0.9888774365351134 0.41 0  0.9646542424817568 0.41 0  0.9405399372996428 0.41 0  0.916534028195068 0.41 0  0.8926360178936621 0.41 0  0.8688454391964415 0.41 0  0.8451617959729809 0.41 0  0.8215846106018625 0.41 0  0.7981134011381465 0.41 0  0.7747477057483507 0.41 0  0.7514870309929218 0.41 0  0.7283309147497725 0.41 0  0.7052788907345926 0.41 0  0.6823304884443711 0.41 0  0.6594852330998913 0.41 0  0.6367426741731019 0.41 0  0.6141023398553211 0.41 0  0.5915637755874821 0.41 0  0.5691265227019089 0.41 0  0.5467901197534788 0.41 0  0.5245541321068876 0.41 0  0.5024180900889137 0.41 0  0.4803815499598949 0.41 0  0.458444065375283 0.41 0  0.4366051859442526 0.41 0  0.4148644812743503 0.41 0  0.3932214934764355 0.41 0  0.3716757933168389 0.41 0  0.3502269459394474 0.41 0  0.3288745151968251 0.41 0  0.3076180592131517 0.41 0  0.2864571529050777 0.41 0  0.2653913610705745 0.41 0  0.2444202633453989 0.41 0  0.2235434355736121 0.41 0  0.202760449756034 0.41 0  0.1820708739977555 0.41 0  0.1614743126667344 0.41 0  0.140970327405586 0.41 0  0.120558507732039 0.41 0  0.1002384394571796 0.41 0  0.08000970463500767 0.41 0  0.05987191195264252 0.41 0  0.03982462845310097 0.41 0  0.01986745845594617 0.41 0  0.2009941093832422 0.2499901164885035 0  0.2019878257548352 0.2499604698613656 0  0.2029807562584742 0.2499110718390977 0  0.2039725083485626 0.2498419419507366 0  0.2049626899453778 0.2497531075261239 0  0.2059509095900689 0.2496446036851018 0  0.2069367765994233 0.2495164733236293 0  0.2079199012203332 0.2493687670968211 0  0.208899894783849 0.2492015433989262 0  0.209876369858873 0.2490148683402368 0  0.2108489404052936 0.2488088157209575 0  0.2118172219266183 0.248583467002027 0  0.2127808316219855 0.248338911272912 0  0.2137393885375067 0.2480752452163837 0  0.2146925137168532 0.2477925730703012 0  0.2156398303510693 0.247491006586403 0  0.2165809639275547 0.2471706649861239 0  0.2175155423781385 0.2468316749134561 0  0.2184431962261471 0.2464741703848905 0  0.2193635587324768 0.2460982927364335 0  0.2202762660405913 0.2457041905677276 0  0.2211809573203641 0.2452920196833053 0  0.2220772749107273 0.2448619430309942 0  0.2229648644610677 0.2444141306374986 0  0.2238433750713457 0.2439487595411649 0  0.2247124594307593 0.2434660137220228 0  0.2255717739550953 0.2429660840290282 0  0.2264209789225549 0.2424491681046155 0  0.227259738608055 0.2419154703065648 0  0.2280877214159585 0.2413652016272072 0  0.2289046000111568 0.2407985796100187 0  0.2297100514485014 0.2402158282636004 0  0.2305037573004443 0.2396171779731418 0  0.2312854037829426 0.2390028654093291 0  0.2320546818795267 0.2383731334347658 0  0.2328112874634348 0.2377282310079845 0  0.2335549214178666 0.2370684130850081 0  0.2342852897542382 0.2363939405185524 0  0.23500210372839 0.2357050799549172 0  0.2357050799547543 0.2350021037285561 0  0.236393940518396 0.2342852897544042 0  0.2370684130848552 0.2335549214180355 0  0.2377282310078377 0.2328112874636036 0  0.2383731334346237 0.2320546818796969 0  0.2390028654091947 0.2312854037831102 0  0.2396171779730177 0.2305037573006055 0  0.2402158282634863 0.2297100514486559 0  0.2407985796099098 0.2289046000113105 0  0.2413652016271038 0.2280877214161108 0  0.2419154703064672 0.2272597386082051 0  0.2424491681045289 0.2264209789226942 0  0.2429660840289533 0.2255717739552211 0  0.2434660137219522 0.2247124594308835 0  0.2439487595410967 0.2238433750714713 0  0.2444141306374335 0.2229648644611936 0  0.2448619430309386 0.2220772749108404 0  0.2452920196832561 0.2211809573204692 0  0.2457041905676833 0.2202762660406911 0  0.2460982927363924 0.2193635587325747 0  0.246474170384854 0.2184431962262392 0  0.2468316749134214 0.2175155423782314 0  0.2471706649860917 0.216580963927646 0  0.2474910065863757 0.215639830351152 0  0.2477925730702761 0.2146925137169349 0  0.2480752452163603 0.2137393885375889 0  0.2483389112728914 0.2127808316220633 0  0.248583467002012 0.2118172219266803 0  0.2488088157209458 0.2108489404053462 0  0.2490148683402261 0.2098763698589259 0  0.249201543398917 0.2088998947838999 0  0.2493687670968142 0.2079199012203759 0  0.2495164733236233 0.2069367765994661 0  0.2496446036850975 0.205950909590105 0  0.2497531075261207 0.2049626899454101 0  0.2498419419507343 0.2039725083485922 0  0.2499110718390968 0.2029807562584889 0  0.2499604698613655 0.2019878257548365 0  0.2499901164885035 0.2009941093832422 0  0.2499901164885035 0.1990058906167579 0  0.2499604698613656 0.1980121742451648 0  0.2499110718390977 0.1970192437415259 0  0.2498419419507366 0.1960274916514374 0  0.2497531075261239 0.1950373100546222 0  0.2496446036851018 0.1940490904099311 0  0.2495164733236293 0.1930632234005767 0  0.2493687670968211 0.1920800987796668 0  0.2492015433989262 0.191100105216151 0  0.2490148683402368 0.190123630141127 0  0.2488088157209575 0.1891510595947065 0  0.248583467002027 0.1881827780733817 0  0.248338911272912 0.1872191683780146 0  0.2480752452163837 0.1862606114624933 0  0.2477925730703012 0.1853074862831468 0  0.247491006586403 0.1843601696489307 0  0.2471706649861239 0.1834190360724454 0  0.2468316749134561 0.1824844576218615 0  0.2464741703848905 0.181556803773853 0  0.2460982927364335 0.1806364412675232 0  0.2457041905677276 0.1797237339594087 0  0.2452920196833053 0.1788190426796359 0  0.2448619430309942 0.1779227250892727 0  0.2444141306374986 0.1770351355389324 0  0.2439487595411649 0.1761566249286543 0  0.2434660137220228 0.1752875405692407 0  0.2429660840290282 0.1744282260449047 0  0.2424491681046155 0.1735790210774451 0  0.2419154703065648 0.172740261391945 0  0.2413652016272072 0.1719122785840415 0  0.2407985796100187 0.171095
[...]
<PointData  Scalars="f_19"> 
<DataArray  type="Float64"  Name="f_19"  format="ascii">5.7666814245670028e-01  4.1170304443204775e-01  0.0000000000000000e+00  0.0000000000000000e+00  -1.2243949859514383e+00  -4.5189835277277268e-01  -7.0127801597033368e-01  1.9778859532035671e+00  4.1179327134869520e-01  4.1720653247183181e-01  4.3310402528941366e-01  4.6255518200140960e-01  5.0754738545770117e-01  5.6572657744581289e-01  6.3328164208445570e-01  7.0263367768491392e-01  7.6447424530818664e-01  8.0828784937990505e-01  8.2686158572271062e-01  8.1961044136080685e-01  7.8967698854574020e-01  7.4512197496972177e-01  6.9658172881522074e-01  6.5188761891748692e-01  6.1670174258765165e-01  5.9324626616314802e-01  5.8063964334873686e-01  5.7669746600874860e-01  5.7553738795344300e-01  5.7340616061238625e-01  5.6967772267787320e-01  5.6347110522028854e-01  5.5354896681481036e-01  5.3811765082050955e-01  5.1553028624020503e-01  4.8483952459476820e-01  4.4638279129218267e-01  4.0223273484783950e-01  3.5571911981416987e-01  3.1072119338466353e-01  2.6907076782485234e-01  2.3328716180549375e-01  2.0267340220907798e-01  1.7608787171919699e-01  1.5210843395272652e-01  1.2897873798576273e-01  1.0348544725507300e-01  7.5181700718949265e-02  4.7629155957879088e-02  2.7259500849215770e-02  2.0566639214707211e-02  3.1399772928344151e-02  6.1930066882561703e-02  1.0854020737758560e-01  1.6551014159107397e-01  2.2236416805144357e-01  2.7349628687710664e-01  3.1279865152244951e-01  3.3692750214795686e-01  3.4836740284170176e-01  3.4215440426960309e-01  3.2707487940078217e-01  3.0286134780181456e-01  2.7739326703633060e-01  2.4776286544060572e-01  2.1072152098003857e-01  1.6790536859086511e-01  1.2065381964586143e-01  7.6645653700765426e-02  4.3970017868477630e-02  3.7042388183866508e-02  6.1804003896171120e-02  1.1453015175232864e-01  1.8001181841787806e-01  2.3798169893499482e-01  2.8030046653507723e-01  3.0371358484578131e-01  2.9578000390995185e-01  2.7924503065964495e-01  2.4337751475491345e-01  1.9603251042114164e-01  1.3469401928344985e-01  6.8218494068722324e-02  3.6587351699840990e-03  -4.0514733005352091e-02  -5.0115451475640525e-02  -2.4775784528139295e-02  2.6139509005898627e-02  8.4984390549373151e-02  1.4045249490417039e-01  1.7975405801418398e-01  2.0249516585763880e-01  2.0872216276083871e-01  1.8891913238413854e-01  1.5666863077183196e-01  1.0786209884678288e-01  5.2200314200152940e-02  -5.4830379741256461e-03  -4.9923232073067911e-02  -7.5527657916540189e-02  -7.6677368983865873e-02  -4.7515895846692260e-02  -6.4247194490621336e-03  3.9328372032919390e-02  8.2180078076819804e-02  1.0997339783954670e-01  1.2148818091751445e-01  1.1396477500571910e-01  9.1010312008936708e-02  5.2930741088680046e-02  5.3383165489041635e-03  -3.9965188959444349e-02  -7.9807167795101525e-02  -1.0031298693825844e-01  -9.6300378666699021e-02  -7.0006465098017001e-02  -3.4586301410135467e-02  0.0000000000000000e+00  0.0000000000000000e+00  0.0000000000000000e+00  0.0000000000000000e+00  0.0000000000000000e+00  0.0000000000000000e+00  0.0000000000000000e+00  0.0000000000000000e+00  0.0000000000000000e+00  0.0000000000000000e+00  0.0000000000000000e+00  0.0000000000000000e+00  0.0000000000000000e+00  3.4522667833291186e-02  6.4896454018825434e-02  8.8340164382243805e-02  9.5248736441437290e-02  8.8953526452822493e-02  6.5339395368957096e-02  2.9397551400022918e-02  -1.0779408324506495e-02  -5.0091434635674809e-02  -7.3240687470624219e-02  -7.4437981500834416e-02  -5.7169290822997341e-02  -1.5630661359223464e-02  3.2415349888161603e-02  8.2609202094970691e-02  1.2260954903019479e-01  1.5123576340801081e-01  1.6237230160059421e-01  1.5510679009088849e-01  1.3130859358591745e-01  9.0555944404886540e-02  4.2392854232194729e-02  -7.2353197377478980e-03  -4.2506784469102679e-02  -6.2197550801160198e-02  -4.1017359514716016e-02  8.7221265459827698e-04  6.0806464370609804e-02  1.2902794883961169e-01  1.8980232361562790e-01  2.3768711486747435e-01  2.6589322724830167e-01  2.6922786529990683e-01  2.5068999740677217e-01  2.0769212697760003e-01  1.4746366339679065e-01  7.3571647084211864e-02  7.6729757181839171e-03  -2.8008097673758732e-02  -1.9053660129421918e-02  1.7132045123464102e-02  7.6149965858042012e-02  1.3328151294650956e-01  1.8063625923262619e-01  2.2301411077834654e-01  2.5745315609038177e-01  2.8746053030077184e-01  3.0615316304092577e-01  3.1569859193977223e-01  3.0834715350324143e-01  2.8272883304116014e-01  2.4354300508022184e-01  1.9308192738963223e-01  1.4709941693068446e-01  1.1423904808130747e-01  9.7293536719286311e-02  9.2777872745534201e-02  9.6136261636201009e-02  1.0478137897218830e-01  1.2516430869065329e-01  1.6037953069404803e-01  2.0859505667973463e-01  2.6160188234795756e-01  3.0805466595077785e-01  3.4465863787202056e-01  3.5827751026616333e-01  3.5315684199899211e-01  3.3157537253477587e-01  2.9316229813362060e-01  2.4993020830363694e-01  1.9675895796953399e-01  1.5001228024128763e-01  1.0694523901916207e-01  7.5691087359664844e-02  5.7926066558393337e-02  5.3852683847061482e-02  6.5679407312945665e-02  9.0395720798449986e-02  1.2655560270555719e-01  1.7188418305998610e-01  2.1960181275280632e-01  2.6638262687232261e-01  3.0835067440164138e-01  3.4362425483202563e-01  3.6872419049388977e-01  3.8839802656516220e-01  3.9988937959075227e-01  4.0802473275878642e-01  4.1032095359446852e-01  -1.2127767483386080e+00  -1.2003462959017757e+00  -1.1872101904535326e+00  -1.1734525375887559e+00  -1.1590876778945618e+00  -1.1441647723953219e+00  -1.1289900860087596e+00  -1.1135543469485787e+00  -1.0980636970998408e+00  -1.0825375388113709e+00  -1.0670511668701994e+00  -1.0515197508453324e+00  -1.0364663430573309e+00  -1.0213710470449060e+00  -1.0064996617361948e+00  -9.9206407881470093e-01  -9.7795748111549952e-01  -9.6433246724118338e-01  -9.5104990187617622e-01  -9.3828248036944284e-01  -9.2602325058326951e-01  -9.1432963864050498e-01  -9.0299627583258069e-01  -8.9212448759503937e-01  -8.8184693068944164e-01  -8.7205265835961199e-01  -8.6283178144044048e-01  -8.5410180522373513e-01  -8.4591964560899580e-01  -8.3819199262335142e-01  -8.3106387064364207e-01  -8.2437020712133002e-01  -8.1806372348932832e-01  -8.1226090725223477e-01  -8.0688505218118356e-01  -8.0183804353950094e-01  -7.9715517874652009e-01  -7.9274546720989103e-01  -7.8853095981478882e-01  -7.8450866371136185e-01  -7.8059527657747330e-01  -7.7675549835486302e-01  -7.7291132788956540e-01  -7.6900557998305419e-01  -7.6495830332476511e-01  -7.6080177511970415e-01  -7.5635237737939365e-01  -7.5160271184568894e-01  -7.4663723102899293e-01  -7.4121359451013680e-01  -7.3551076691394468e-01  -7.2929051334802686e-01  -7.2267702528261524e-01  -7.1557462109960968e-01  -7.0804477726618775e-01  -6.9999312774745381e-01  -6.9152443278220099e-01  -6.8255888943855791e-01  -6.7315853628867139e-01  -6.6331154826677452e-01  -6.5311999536525911e-01  -6.4251685705359574e-01  -6.3162780458630763e-01  -6.2042027874661054e-01  -6.0902598910304584e-01  -5.9739966421444024e-01  -5.8566886801664442e-01  -5.7385074497402633e-01  -5.6194786760312632e-01  -5.5011482302375658e-01  -5.3843135029994993e-01  -5.2677927080241038e-01  -5.1533606244085373e-01  -5.0405738687745560e-01  -4.9304844723581015e-01  -4.8231431030853639e-01  -4.7186992665231542e-01  -4.6170023528869830e-01  -4.4248083696861484e-01  -4.3333204014671906e-01  -4.2456948629475266e-01  -4.1620694094350213e-01  -4.0816922116940729e-01  -4.0039521330968530e-01  -3.9295928945375258e-01  -3.8584579690597226e-01  -3.7901399512764311e-01  -3.7243696991741004e-01  -3.6612083060118639e-01  -3.6002928108185817e-01  -3.5414370587239652e-01  -3.4847590440395082e-01  -3.4298206018019056e-01  -3.3767256252728550e-01  -3.3252032680893401e-01  -3.2754039540861601e-01  -3.2270409049028498e-01  -3.1803295998904624e-01  -3.1352181996961004e-01  -3.0916752747832144e-01  -3.0498393249018091e-01  -3.0098541731770045e-01  -2.9719906120636980e-01  -2.9361872212465207e-01  -2.9029750701929674e-01  -2.8724660257496570e-01  -2.8448949653874567e-01  -2.8203538633587161e-01  -2.7998162380673347e-01  -2.7828165210422467e-01  -2.7702100919255346e-01  -2.7620417810344344e-01  -2.7585024254493107e-01  -2.7598918901884750e-01  -2.7663673232293517e-01  -2.7778480101587449e-01  -2.7945474712854140e-01  -2.8161562612123969e-01  -2.8429568027984198e-01  -2.8743967121171682e-01  -2.9108644417347984e-01  -2.9515642899279043e-01  -2.9967375019286546e-01  -3.0461320434107547e-01  -3.0998584484960584e-01  -3.1571531404595793e-01  -3.2188004886651495e-01  -3.2841772128051194e-01  -3.3533402423861869e-01  -3.4272484193203068e-01  -3.5049357965680350e-01  -3.5870418231185824e-01  -3.6741749849027222e-01  -3.7654440458728605e-01  -3.8625936006760486e-01  -3.9640252892128636e-01  -4.0705753372092723e-01  -4.1841140152872536e-01  -4.3012783480695421e-01  -4.4237055314711843e-01  -4.5518828201698019e-01  -4.6857747473495837e-01  -4.8237960726056067e-01  -4.9671948117500353e-01  -5.1146832197876746e-01  -5.2670926701297749e-01  -5.4216211945677406e-01  -5.5786206421126505e-01  -5.7392108011534693e-01  -5.9003629414744285e-01  -6.0640832740857886e-01  -6.2287071419838902e-01  -6.3904804943811422e-01  -6.5499837666295069e-01  -6.7079516470358924e-01  -6.8634345325471846e-01  -7.1566669940336336e-01  -7.2933494133218169e-01  -7.4224135654612389e-01  -7.5407261016349292e-01  -7.6480271542761713e-01  -7.7427961894603425e-01  -7.8252242428629304e-01  -7.8936155597285540e-01  -7.9452753720900759e-01  -7.9803550174038151e-01  -7.9964549223947079e-01  -7.9963868751813216e-01  -7.9744953468988589e-01  -7.9343547735370523e-01  -7.8711242776526869e-01  -7.7836525071621609e-01  -7.6750375986304731e-01  -7.5428276390778082e-01  -7.3878434609801857e-01  -7.2062657374602901e-01  -7.0019310382233968e-01  -6.7706491468004848e-01  -6.5144179251095924e-01  -6.2349543669652752e-01  -5.9296458297522603e-01  -5.6017167737414919e-01  -5.2442803396961279e-01  -4.8646994287025808e-01  -4.4628912688220523e-01  -4.0364643419864210e-01  -3.5889354405778501e-01  -3.1176438726381189e-01  -2.6270239570050430e-01  -2.1133067636437361e-01  -1.5837609520190513e-01  -1.0324944528649484e-01  -4.6650621092524970e-02  1.1837107608337389e-02  7.1466979110384160e-02  1.3268669186129559e-01  1.9534579954834599e-01  2.5876133149553460e-01  3.2290535079270810e-01  3.8837235978639606e-01  4.5439582013995067e-01  5.2065024367807311e-01  5.8752907750689831e-01  6.5445471682425660e-01  7.2121766384929953e-01  7.8819015931428082e-01  8.5457916262079525e-01  9.2078001085421579e-01  9.8607666445935671e-01  1.0508073937320035e+00  1.1142211902756367e+00  1.1768564055924544e+00  1.2381568286844022e+00  1.2978413010443732e+00  1.3558481313813173e+00  1.4123081929943475e+00  1.4668015088697590e+00  1.5188933125871189e+00  1.5691994294900664e+00  1.6168906198319573e+00  1.6622900177434201e+00  1.7048940624541229e+00  1.7449335930459666e+00  1.7823334950890728e+00  1.8162815812735953e+00  1.8470746755921095e+00  1.8756670998429141e+00  1.9001040963835478e+00  1.9215258255193766e+00  1.9397539678055935e+00  1.9540430686948336e+00  1.9657465737623048e+00  1.9732090076291877e+00  1.9773029852938013e+00  1.9749001849465204e+00  1.9683847101558247e+00  1.9583438021862669e+00  1.9448078057324547e+00  1.9277236039469325e+00  1.9066517890617625e+00  1.8824920427436220e+00  1.8553628068095775e+00  1.8246711382737570e+00  1.7905575561987310e+00  1.7533992993648737e+00  1.7130487500454306e+00  1.6699661030169373e+00  1.6237662472189021e+00  1.5750052937281807e+00  1.5233406640856462e+00  1.4694010977110892e+00  1.4128314883330890e+00  1.3543132627611849e+00  1.2934707445933764e+00  1.2309050498501981e+00  1.1661924355405795e+00  1.1000544021497636e+00  1.0322111009028303e+00  9.6330176962166270e-01  8.9294690581311786e-01  8.2172269580278334e-01  7.4949254122956754e-01  6.7687131679355295e-01  6.0350163032853421e-01  5.2965073365425974e-01  4.5594116780616573e-01  3.8200888592696003e-01  3.0821649419800129e-01  2.3465650948643310e-01  1.6155780002192677e-01  8.9041360125756044e-02  1.7210419168082747e-02  -5.3394775448924056e-02  -1.2324926922090657e-01  -1.9164354357097721e-01  -2.5915771415421024e-01  -3.2506733324886128e-01  -3.8894828472160375e-01  -4.5164345505429804e-01  -5.1227318889128814e-01  -5.7119379335302900e-01  -6.2827014513417700e-01  -6.8278648228151162e-01  -7.3521656706051652e-01  -7.8543393163897823e-01  -8.3359895286974006e-01  -8.7903783923260026e-01  -9.2235213119139625e-01  -9.6278670027495517e-01  -1.0009389235175177e+00  -1.0363278557128535e+00  -1.0693795990520580e+00  -1.0996671363047168e+00  -1.1275830841218730e+00  -1.1526345242877227e+00  -1.1751568505089369e+00  -1.1951265057256477e+00  -1.2127490193780261e+00  -1.2278290036359376e+00  -1.2404409488342389e+00  -1.2507868906112893e+00  -1.2591153578851992e+00  -1.2651286936955430e+00  -1.2685508652132040e+00  -1.2705053338554155e+00  -1.2703595206979839e+00  -1.2684126497238997e+00  -1.2646814033946980e+00  -1.2593746696295327e+00  -1.2525554108980463e+00  -1.2443808631231801e+00  -1.2349991027234213e+00  -7.3219344095310113e-02  7.6120717557078568e-02  -6.8253681948819189e-01  -2.1652923699184250e-02  -1.9281126664153311e-01  3.9590229208638146e-02  4.5557527887985055e-01  9.2298805765145198e-01  9.5872336896693244e-01  5.5257748093903303e-01  2.8419592850156739e-01  -8.2472220593681744e-01  -7.9351350920767028e-01  -4.5779350102674965e-01  -3.7479752845557002e-01  -1.5798858698770268e-01  -4.1506657843263579e-02  -3.1516275527274318e-01  2.6130571821503307e-01  8.6022366192067157e-01  1.3632067661653333e+00  1.3038983495336447e+00  7.0072350263234795e-01  2.3601649220820312e-01  -6.3279793954004138e-01  -7.9254879172070603e-01  -2.6447545300091568e-01  -8.8107785983904063e-02  -2.7057262939090304e-01  1.9061726700483617e-01  -2.3089037487554076e-01  -2.6552230894299045e-01  -7.7215252600052720e-01  -7.7749618232564688e-01  -7.7637965704782452e-01  -4.0622326789374658e-01  1.0602876681237599e+00  4.5689626172268039e-01  -2.7195252016526037e-02  7.7611312810523436e-01  1.3964638692976608e+00  1.7054389689482168e+00  1.6385578245164463e+00  -3.2368299820953883e-01  4.5023287713943753e-02  -1.3901421290976058e-02  -3.4093519190046340e-01  -8.1653443206034415e-01  8.3529184359635803e-03  -5.2893347502322566e-02  -5.3615607076713356e-01  -6.7867934829393761e-01  -3.4207825181358877e-02  1.3508108329059130e+00  -1.1171956049315990e-01  -7.3977228736881795e-01  -7.6622211382262650e-01  -7.9905854631742346e-01  -2.7375658183983004e-01  -2.7826123417370396e-01  -3.3596898188607471e-01  -1.0661860965743453e-01  -7.7640978005019867e-01  -3.7801757427733312e-01  9.1942366192439173e-01  3.9954155625169652e-01  -5.4510687058378169e-03  -8.6898212129238650e-01  -9.6223840579739328e-01  -1.0374660651204306e+00  -4.3105794727577113e-02  -4.3703331800670470e-01  -3.1726306396219883e-01  -2.7084627802975364e-01  1.8396918812778662e+00  1.8410312625581979e+00  1.5905982165068557e+00  1.1546352373466133e+00  -4.7197628299026212e-01  3.7114492514659109e-01  -7.1170455724232945e-02  -4.2538478701868471e-01  -5.5459818155748208e-01  -3.8494309794154902e-01  -4.6886475336619510e-01  1.0803626899924408e-01  1.7393493289106225e+00  5.1556438631838342e-02  -6.1695544373318223e-01  -1.1181216027131116e+00  -5.8038404029813129e-01  2.3700541266910244e-01  -2.7440294568926638e-01  -1.4446768951382796e-01  -4.3085884468312519e-01  1.8675318013778411e-01  -3.1159172836563254e-01  -6.9304134467006384e-01  -2.7859740179271703e-01  -3.8478966628049954e-01  -5.0002663577860529e-01  1.5285740763047500e+00  4.2164906410697217e-01  1.2248796941054554e+00  1.6592703197540562e-01  -2.1337963257233486e-01  -3.3525504805521694e-01  -2.9013190256005544e-01  -3.4456798763258550e-01  -2.9627378399591647e-01  7.0772458342127353e-01  -7.9053372320295956e-01  -1.1234379548804654e-01  1.1513140096683848e-01  -1.1450881599385065e+00  -8.6507013845802050e-01  -7.2673587935261386e-01  -7.5152601462772872e-01  -3.5180066577935112e-02  6.3840151582068197e-02  -8.4632583336315670e-01  2.7697351587543712e-01  5.7502001765627191e-02  1.9488126989023354e-02  -3.6277178167713101e-02  -6.2759132709352952e-03  6.5313054068958709e-01  7.4203256529256786e-02  3.3179330206708169e-01  1.3685711153063427e+00  -5.1625225002362605e-03  -6.2286301643552899e-01  -6.3256036935777749e-01  1.1428395627179835e+00  -9.4011268958943128e-01  1.0816561211253443e-01  3.0472198574917658e-01  5.6485615988894466e-01  -7.2376361240768294e-01  9.1974492779070338e-01  9.8053428408677090e-01  -2.9696403800651616e-01  -7.7522822204232567e-01  7.0835313285319601e-01  -1.0988607306321234e+00  -1.0700933541343056e+00  -2.2813904201357108e-01  -5.0346982827026199e-01  -1.9711293498727900e-01  -2.8010225652321225e-01  -4.8137304013630372e-01  1.0800643231370308e+00  -3.2323216580423181e-01  -3.5705333378304993e-01  2.9587599115918628e-01  4.5845020356033878e-04  1.7644992676552946e+00  4.2416285502592321e-01  1.9247610086292215e+00  1.8935265875263183e+00  1.5063131823801499e+00  -1.7006645289664751e-01  2.4283902340643893e-01  1.3503358992093789e-02  4.3049446920342592e-02  -8.2079582790386879e-02  -6.5168115040804941e-01  2.4820664243619575e-01  -6.6590674841533581e-01  -1.9760679459100738e-01  2.2195804870502581e-01  -5.7161966056260793e-01  -4.6838783241271181e-01  1.1240629218481640e-01  -1.1592935303321084e+00  -2.8014508864145565e-01  -8.1721755269155161e-01  -4.5413163049128979e-01  -5.4045672066211670e-01  6.0123083327626570e-01  1.8896683769400846e-01  -1.8608130504702647e-01  -1.8843572149778487e-01  -5.6317997376283657e-01  4.3147578481492121e-01  -8.9312119792379951e-01  2.6128833183392391e-01  -1.8158095509194155e-01  6.8080222522121514e-01  -1.0005879179164112e+00  3.5819723565632705e-02  -7.2234849544339719e-01  -1.8092192156199108e-01  2.7652691099876631e-01  4.3534878327011961e-01  3.9197483811870648e-01  -2.7777137745044245e-01  1.8930792699562811e+00  -6.4611119251796578e-01  1.8268905198632814e+00  1.6988098490052910e+00  1.5754336602247991e+00  4.9135371821716833e-01  -4.1798154237449009e-01  3.7755901877856012e-02  -5.8398279339252956e-01  8.9042399026972696e-01  -1.7111456185715937e-01  -4.5111580698523912e-01  -8.5983081516363580e-01  -8.8652809049725639e-02  -1.9863970939993786e-01  -7.3465476516177153e-01  1.1512193578558307e+00  -7.7794245748138635e-01  -3.9823405556664937e-01  -7.0200279855263459e-01  1.1704902837585308e-01  3.7331365424106250e-01  -7.2807450278436450e-02  3.8256038331421821e-01  5.6460937985819870e-01  -3.0626630693870716e-01  -3.2463157528126857e-01  7.3607900038947560e-01  -4.7452773528084696e-01  -6.5976272736809261e-01  -5.0351556330557212e-01  -3.7520049543716120e-02  5.1842520215761423e-01  -6.6958254008315476e-01  -2.6695054870068794e-02  -1.2118377883153415e+00  1.3651807281411608e+00  -1.7968455565799507e-01  1.3699271481654531e+00  4.1011906576978396e-01  -9.1750734127327727e-01  -3.6434136940674416e-01  -7.4540280990405183e-01  -2.8983019027710272e-01  -1.1333027009715988e+00  1.9202166236617130e-01  2.7488035905238239e-02  6.0196767735339968e-02  -7.4736578544341417e-02  -4.0936620311069227e-01  2.1272242577718664e-01  5.2151305757536004e-01  -3.3624359988518010e-01  -7.6448426333563280e-01  1.2501569521937605e-02  3.5592208726702579e-01  1.4047234455274893e-01  2.2658789619319500e-01  -7.6673025376150195e-01  -7.9048293020588445e-01  -7.4619144151226369e-01  -2.8670494313274913e-01  -7.0379080313592046e-01  1.6725837755358002e+00  -7.9831191607983298e-01  -1.8307249023978289e-01  -2.3570851107082305e-01  1.8106234183636849e-01  -3.5845908598988792e-02  7.1579136419288591e-01  1.0933311188897421e+00  -3.8556737505562919e-02  3.1582598130251111e-01  2.5612439226581318e-01  1.3853875894709144e-01  -1.0919379650977497e+00  -1.1974289502060733e+00  -7.1486769020104934e-01  1.1367480732914427e-01  2.1701049470198602e-01  -1.9857806855559171e-01  8.7385551770307368e-01  1.2526675032941728e+00  -8.2569853067495425e-02 