<?xml version="1.0"?>
<VTKFile type="UnstructuredGrid"  version="0.1"  >
<UnstructuredGrid>
<Piece  NumberOfPoints="5712" NumberOfCells="10893">
<Points>
<DataArray  type="Float64"  NumberOfComponents="3"  format="ascii">0 0 0  0 0.41 0  2.2 0 0  2.2 0.41 0  0.2 0.25 0  0.25 0.2 0  0.2 0.15 0  0.15 0.2 0  0 0.3904761904762147 0  0 0.3709523809524729 0  0 0.3514285714286954 0  0 0.3319047619049458 0  0 0.3123809523811823 0  0 0.2928571428574404 0  0 0.2733333333336768 0  0 0.2538095238099349 0  0 0.2342857142861567 0  0 0.2147619047624078 0  0 0.1952380952385999 0  0 0.1757142857147328 0  0 0.1561904761908952 0  0 0.1366666666670465 0  0 0.1171428571431906 0  0 0.09761904761931661 0  0 0.0780952380954425 0  0 0.05857142857161174 0  0 0.03904761904773757 0  0 0.01952380952386334 0  0.01986745845578998 0 0  0.03982462845278956 0 0  0.05987191195217309 0 0  0.0800097046343772 0 0  0.1002384394563812 0 0  0.1205585077310739 0 0  0.1409703274044529 0 0  0.1614743126654433 0 0  0.1820708739963059 0 0  0.2027604497544275 0 0  0.2235434355718665 0 0  0.2444202633435119 0 0  0.265391361068545 0 0  0.2864571529028895 0 0  0.3076180592107884 0 0  0.3288745151942862 0 0  0.3502269459367295 0 0  0.3716757933139423 0 0  0.3932214934733583 0 0  0.4148644812710909 0 0  0.4366051859408088 0 0  0.4584440653716539 0 0  0.48038154995608 0 0  0.5024180900849111 0 0  0.5245541321026944 0 0  0.5467901197490906 0 0  0.5691265226973262 0 0  0.5915637755827025 0 0  0.614102339850345 0 0  0.636742674167927 0 0  0.6594852330945143 0 0  0.6823304884387933 0 0  0.7052788907288091 0 0  0.7283309147437839 0 0  0.751487030986726 0 0  0.7747477057419434 0 0  0.7981134011315298 0 0  0.821584610595033 0 0  0.8451617959659341 0 0  0.8688454391891771 0 0  0.8926360178861791 0 0  0.9165340281873645 0 0  0.9405399372917173 0 0  0.9646542424736072 0 0  0.9888774365267383 0 0  1.013210007824441 0 0  1.037652440378865 0 0  1.06220524733373 0 0  1.086868914509785 0 0  1.111643945154348 0 0  1.136530838720734 0 0  1.161530116277625 0 0  1.186642266933783 0 0  1.211867807739771 0 0  1.237207251805963 0 0  1.26266110764717 0 0  1.288229902058941 0 0  1.313914143782356 0 0  1.339714360040014 0 0  1.36563107331828 0 0  1.391664802767304 0 0  1.417816093074858 0 0  1.444085461454821 0 0  1.470473442759746 0 0  1.496980573539167 0 0  1.523607398041112 0 0  1.550354449227912 0 0  1.577222271446548 0 0  1.60421140927435 0 0  1.631322413213628 0 0  1.658555830029694 0 0  1.685912218634225 0 0  1.713392126884173 0 0  1.740996123438425 0 0  1.768724751279777 0 0  1.796578588883932 0 0  1.824558192783585 0 0  1.852664140769835 0 0  1.880896988683294 0 0  1.909257322654582 0 0  1.93774570990443 0 0  1.966362727809846 0 0  1.995108970713317 0 0  2.023985006033532 0 0  2.052991427225145 0 0  2.082128822851723 0 0  2.111397799134646 0 0  2.140798904430552 0 0  2.170332790993664 0 0  2.2 0.02928571428565775 0  2.2 0.05857142857131794 0  2.2 0.08785714285694929 0  2.2 0.1171428571425731 0  2.2 0.1464285714282011 0  2.2 0.1757142857138497 0  2.2 0.2049999999994743 0  2.2 0.2342857142852724 0  2.2 0.2635714285710462 0  2.2 0.2928571428568132 0  2.2 0.3221428571426234 0  2.2 0.3514285714283903 0  2.2 0.3807142857142005 0  2.170332790993718 0.41 0  2.140798904430656 0.41 0  2.111397799134855 0.41 0  2.082128822859404 0.41 0  2.052991427232898 0.41 0  2.023985006041361 0.41 0  1.99510897072121 0.41 0  1.966362727817755 0.41 0  1.937745709912357 0.41 0  1.90925732266254 0.41 0  1.880896988691295 0.41 0  1.852664140777879 0.41 0  1.824558192791673 0.41 0  1.79657858889206 0.41 0  1.768724751287952 0.41 0  1.740996123446639 0.41 0  1.713392126892427 0.41 0  1.685912218642533 0.41 0  1.658555830038071 0.41 0  1.631322413222075 0.41 0  1.604211409282859 0.41 0  1.577222271455122 0.41 0  1.55035444923655 0.41 0  1.523607398049813 0.41 0  1.496980573547932 0.41 0  1.470473442768574 0.41 0  1.444085461463712 0.41 0  1.417816093083807 0.41 0  1.391664802776313 0.41 0  1.365631073327341 0.41 0  1.339714360049107 0.41 0  1.31391414379148 0.41 0  1.288229902068097 0.41 0  1.262661107656355 0.41 0  1.237207251815179 0.41 0  1.211867807749015 0.41 0  1.186642266943055 0.41 0  1.161530116286924 0.41 0  1.13653083873006 0.41 0  1.111643945163706 0.41 0  1.086868914519036 0.41 0  1.062205247342763 0.41 0  1.037652440387677 0.41 0  1.013210007833036 0.41 0  0.9888774365351134 0.41 0  0.9646542424817568 0.41 0  0.9405399372996428 0.41 0  0.916534028195068 0.41 0  0.8926360178936621 0.41 0  0.8688454391964415 0.41 0  0.8451617959729809 0.41 0  0.8215846106018625 0.41 0  0.7981134011381465 0.41 0  0.7747477057483507 0.41 0  0.7514870309929218 0.41 0  0.7283309147497725 0.41 0  0.7052788907345926 0.41 0  0.6823304884443711 0.41 0  0.6594852330998913 0.41 0  0.6367426741731019 0.41 0  0.6141023398553211 0.41 0  0.5915637755874821 0.41 0  0.5691265227019089 0.41 0  0.5467901197534788 0.41 0  0.5245541321068876 0.41 0  0.5024180900889137 0.41 0  0.4803815499598949 0.41 0  0.458444065375283 0.41 0  0.4366051859442526 0.41 0  0.4148644812743503 0.41 0  0.3932214934764355 0.41 0  0.3716757933168389 0.41 0  0.3502269459394474 0.41 0  0.3288745151968251 0.41 0  0.3076180592131517 0.41 0  0.2864571529050777 0.41 0  0.2653913610705745 0.41 0  0.2444202633453989 0.41 0  0.2235434355736121 0.41 0  0.202760449756034 0.41 0  0.1820708739977555 0.41 0  0.1614743126667344 0.41 0  0.140970327405586 0.41 0  0.120558507732039 0.41 0  0.1002384394571796 0.41 0  0.08000970463500767 0.41 0  0.05987191195264252 0.41 0  0.03982462845310097 0.41 0  0.01986745845594617 0.41 0  0.2009941093832422 0.2499901164885035 0  0.2019878257548352 0.2499604698613656 0  0.2029807562584742 0.2499110718390977 0  0.2039725083485626 0.2498419419507366 0  0.2049626899453778 0.2497531075261239 0  0.2059509095900689 0.2496446036851018 0  0.2069367765994233 0.2495164733236293 0  0.2079199012203332 0.2493687670968211 0  0.208899894783849 0.2492015433989262 0  0.209876369858873 0.2490148683402368 0  0.2108489404052936 0.2488088157209575 0  0.2118172219266183 0.248583467002027 0  0.2127808316219855 0.248338911272912 0  0.2137393885375067 0.2480752452163837 0  0.2146925137168532 0.2477925730703012 0  0.2156398303510693 0.247491006586403 0  0.2165809639275547 0.2471706649861239 0  0.2175155423781385 0.2468316749134561 0  0.2184431962261471 0.2464741703848905 0  0.2193635587324768 0.2460982927364335 0  0.2202762660405913 0.2457041905677276 0  0.2211809573203641 0.2452920196833053 0  0.2220772749107273 0.2448619430309942 0  0.2229648644610677 0.2444141306374986 0  0.2238433750713457 0.2439487595411649 0  0.2247124594307593 0.2434660137220228 0  0.2255717739550953 0.2429660840290282 0  0.2264209789225549 0.2424491681046155 0  0.227259738608055 0.2419154703065648 0  0.2280877214159585 0.2413652016272072 0  0.2289046000111568 0.2407985796100187 0  0.2297100514485014 0.2402158282636004 0  0.2305037573004443 0.2396171779731418 0  0.2312854037829426 0.2390028654093291 0  0.2320546818795267 0.2383731334347658 0  0.2328112874634348 0.2377282310079845 0  0.2335549214178666 0.2370684130850081 0  0.2342852897542382 0.2363939405185524 0  0.23500210372839 0.2357050799549172 0  0.2357050799547543 0.2350021037285561 0  0.236393940518396 0.2342852897544042 0  0.2370684130848552 0.2335549214180355 0  0.2377282310078377 0.2328112874636036 0  0.2383731334346237 0.2320546818796969 0  0.2390028654091947 0.2312854037831102 0  0.2396171779730177 0.2305037573006055 0  0.2402158282634863 0.2297100514486559 0  0.2407985796099098 0.2289046000113105 0  0.2413652016271038 0.2280877214161108 0  0.2419154703064672 0.2272597386082051 0  0.2424491681045289 0.2264209789226942 0  0.2429660840289533 0.2255717739552211 0  0.2434660137219522 0.2247124594308835 0  0.2439487595410967 0.2238433750714713 0  0.2444141306374335 0.2229648644611936 0  0.2448619430309386 0.2220772749108404 0  0.2452920196832561 0.2211809573204692 0  0.2457041905676833 0.2202762660406911 0  0.2460982927363924 0.2193635587325747 0  0.246474170384854 0.2184431962262392 0  0.2468316749134214 0.2175155423782314 0  0.2471706649860917 0.216580963927646 0  0.2474910065863757 0.215639830351152 0  0.2477925730702761 0.2146925137169349 0  0.2480752452163603 0.2137393885375889 0  0.2483389112728914 0.2127808316220633 0  0.248583467002012 0.2118172219266803 0  0.2488088157209458 0.2108489404053462 0  0.2490148683402261 0.2098763698589259 0  0.249201543398917 0.2088998947838999 0  0.2493687670968142 0.2079199012203759 0  0.2495164733236233 0.2069367765994661 0  0.2496446036850975 0.205950909590105 0  0.2497531075261207 0.2049626899454101 0  0.2498419419507343 0.2039725083485922 0  0.2499110718390968 0.2029807562584889 0  0.2499604698613655 0.2019878257548365 0  0.2499901164885035 0.2009941093832422 0  0.2499901164885035 0.1990058906167579 0  0.2499604698613656 0.1980121742451648 0  0.2499110718390977 0.1970192437415259 0  0.2498419419507366 0.1960274916514374 0  0.2497531075261239 0.1950373100546222 0  0.2496446036851018 0.1940490904099311 0  0.2495164733236293 0.1930632234005767 0  0.2493687670968211 0.1920800987796668 0  0.2492015433989262 0.191100105216151 0  0.2490148683402368 0.190123630141127 0  0.2488088157209575 0.1891510595947065 0  0.248583467002027 0.1881827780733817 0  0.248338911272912 0.1872191683780146 0  0.2480752452163837 0.1862606114624933 0  0.2477925730703012 0.1853074862831468 0  0.247491006586403 0.1843601696489307 0  0.2471706649861239 0.1834190360724454 0  0.2468316749134561 0.1824844576218615 0  0.2464741703848905 0.181556803773853 0  0.2460982927364335 0.1806364412675232 0  0.2457041905677276 0.1797237339594087 0  0.2452920196833053 0.1788190426796359 0  0.2448619430309942 0.1779227250892727 0  0.2444141306374986 0.1770351355389324 0  0.2439487595411649 0.1761566249286543 0  0.2434660137220228 0.1752875405692407 0  0.2429660840290282 0.1744282260449047 0  0.2424491681046155 0.1735790210774451 0  0.2419154703065648 0.172740261391945 0  0.2413652016272072 0.1719122785840415 0  0.2407985796100187 0.171095
[...]
<PointData  Scalars="f_19"> 
<DataArray  type="Float64"  Name="f_19"  format="ascii">5.7136336130501919e-01  4.0978291743145778e-01  0.0000000000000000e+00  0.0000000000000000e+00  -1.2104809926583509e+00  -4.5116566706764533e-01  -7.0429240338035548e-01  1.9745833638678258e+00  4.0987125814719766e-01  4.1525981588791405e-01  4.3111076461397368e-01  4.6049597349801552e-01  5.0540104910330630e-01  5.6347044093968890e-01  6.3088612884298467e-01  7.0006288750645740e-01  7.6169326582969688e-01  8.0526143705440567e-01  8.2356048572274232e-01  8.1601354079583965e-01  7.8577128896862258e-01  7.4090778475431551e-01  6.9207440181991986e-01  6.4711691457088694e-01  6.1171216950569685e-01  5.8809419254749273e-01  5.7538302654758500e-01  5.7139607065803577e-01  5.7023332799032533e-01  5.6806754327441722e-01  5.6424654713913891e-01  5.5787585018256469e-01  5.4770481485126998e-01  5.3194146581707558e-01  5.0894773862535869e-01  4.7779650504695870e-01  4.3884614433798519e-01  3.9418600215086969e-01  3.4717990906618779e-01  3.0174926525223217e-01  2.5975885259421788e-01  2.2381674739569299e-01  1.9323038811666338e-01  1.6701145219990765e-01  1.4371656354208792e-01  1.2143659109948288e-01  9.7188444780021213e-02  7.0065914814462629e-02  4.3234509051767574e-02  2.2671649030450665e-02  1.4860269550474934e-02  2.4132425601585798e-02  5.3137539554888147e-02  9.8690011121871493e-02  1.5531524022202811e-01  2.1265610501419477e-01  2.6484118878940904e-01  3.0567976647784145e-01  3.3168782580988793e-01  3.4494256318807798e-01  3.4002678288724303e-01  3.2552171614742614e-01  3.0120938049699630e-01  2.7590943777225924e-01  2.4731134600752316e-01  2.1238581379741292e-01  1.7198592274227589e-01  1.2671633657430686e-01  8.3462021279765458e-02  4.9432393818287797e-02  3.8789573094052517e-02  5.7892771352070667e-02  1.0560642375950023e-01  1.6808553155001843e-01  2.2627356193275314e-01  2.7053221862835386e-01  2.9615721859049970e-01  2.9049552362914433e-01  2.7651296030605843e-01  2.4452030765617630e-01  2.0260155658624082e-01  1.4779336686338809e-01  8.5146517376636963e-02  1.9653064082771496e-02  -3.0792148354289794e-02  -4.8533904586998876e-02  -2.9812330489120693e-02  1.7958576818645131e-02  7.6719118970252298e-02  1.3398867897468286e-01  1.7583910769985694e-01  2.0170752568831535e-01  2.1076804849242647e-01  1.9336155111327913e-01  1.6352526895281713e-01  1.1651906186657249e-01  6.2285454940233673e-02  5.1686504558322898e-03  -4.0140037163474494e-02  -6.8077856712880691e-02  -7.2521021172021125e-02  -4.7160708945578889e-02  -9.3829861651955927e-03  3.4488745312213180e-02  7.6884135132871734e-02  1.0553705807521417e-01  1.1916917454502275e-01  1.1451865297369188e-01  9.4903581687629093e-02  6.0398963337893380e-02  1.6445417894253057e-02  -2.6025014327699526e-02  -6.4090535540656524e-02  -8.4658255917287942e-02  -8.3190281626543072e-02  -6.1479552766806028e-02  -3.0980423486609152e-02  0.0000000000000000e+00  0.0000000000000000e+00  0.0000000000000000e+00  0.0000000000000000e+00  0.0000000000000000e+00  0.0000000000000000e+00  0.0000000000000000e+00  0.0000000000000000e+00  0.0000000000000000e+00  0.0000000000000000e+00  0.0000000000000000e+00  0.0000000000000000e+00  0.0000000000000000e+00  3.2470375135325615e-02  6.0013318353976546e-02  8.0406968220578717e-02  8.4855944503279240e-02  7.7199692629510860e-02  5.4442121694013156e-02  2.1567397374969960e-02  -1.3896298950144879e-02  -4.7789081528879791e-02  -6.6618338162195700e-02  -6.5170002564529567e-02  -4.6741999588804893e-02  -5.9378329082578523e-03  4.0687406305908662e-02  8.8638409191387171e-02  1.2612990966996815e-01  1.5213597713972615e-01  1.6085319547955099e-01  1.5137150046915468e-01  1.2600901881570847e-01  8.4468349297926890e-02  3.6485069734139002e-02  -1.1760195959802598e-02  -4.3847326316393154e-02  -5.9028279130499822e-02  -3.2314851666348919e-02  1.4299058598371432e-02  7.6270550014146940e-02  1.4352469538672513e-01  2.0098134776739870e-01  2.4436130469277870e-01  2.6772975698089818e-01  2.6701930618535569e-01  2.4403374640986858e-01  1.9618364369290955e-01  1.3210798938172433e-01  5.9505727067920018e-02  7.1259961142679002e-04  -2.3454195776660022e-02  -6.2541919092740650e-03  3.3084006935191104e-02  8.8067407152385854e-02  1.4076655942576571e-01  1.8411190017215029e-01  2.2336878838349658e-01  2.5558912658775723e-01  2.8360826135603007e-01  3.0061412513283720e-01  3.0823454046507143e-01  2.9898799252779595e-01  2.7217689320843524e-01  2.3280682215151549e-01  1.8475570869446356e-01  1.4216256640280905e-01  1.1271883457157668e-01  9.7268001329915657e-02  9.2118399210398411e-02  9.4176109372662575e-02  1.0190777657672287e-01  1.2264472007239684e-01  1.5874754288274273e-01  2.0775722266179372e-01  2.6059296210509664e-01  3.0573144442877886e-01  3.4002875475060623e-01  3.5138484516534385e-01  3.4403888864587318e-01  3.2079076519035071e-01  2.8122160586586820e-01  2.3755591592023945e-01  1.8455920731671932e-01  1.3859119477115819e-01  9.6689954432213537e-02  6.6840173016356710e-02  5.0622513802796941e-02  4.8015079298816078e-02  6.1223197764538176e-02  8.7158293562523373e-02  1.2418855123721917e-01  1.7018202987792624e-01  2.1826608930569075e-01  2.6517919712985238e-01  3.0710842768391455e-01  3.4224510111632150e-01  3.6718526609037500e-01  3.8669542313816158e-01  3.9807038173482456e-01  4.0612974880114389e-01  4.0840499535373070e-01  -1.1986228850099945e+00  -1.1859701374363472e+00  -1.1726319136600749e+00  -1.1586901439495081e+00  -1.1441617477183044e+00  -1.1290935221855607e+00  -1.1137926045223419e+00  -1.0982477921919391e+00  -1.0826659246775543e+00  -1.0670644725311993e+00  -1.0515190955519556e+00  -1.0359436402782383e+00  -1.0208586825128718e+00  -1.0057470381733302e+00  -9.9087104570155038e-01  -9.7644171537769131e-01  -9.6235084962068684e-01  -9.4875047530922019e-01  -9.3550103713511856e-01  -9.2277299951968439e-01  -9.1055819001948057e-01  -8.9891334050521965e-01  -8.8763496293750987e-01  -8.7682144011204977e-01  -8.6660395580838845e-01  -8.5687124272192661e-01  -8.4771233046562267e-01  -8.3904425656063908e-01  -8.3092331652210594e-01  -8.2325600653151254e-01  -8.1618433543658753e-01  -8.0954631679985101e-01  -8.0329489704798895e-01  -7.9754267470848283e-01  -7.9221504150378297e-01  -7.8721554420863760e-01  -7.8257820989552984e-01  -7.7821484749087033e-01  -7.7404873813604591e-01  -7.7007753070027207e-01  -7.6621966007729347e-01  -7.6244167290684339e-01  -7.5866761544027939e-01  -7.5484303281595677e-01  -7.5089003454604242e-01  -7.4684021178871995e-01  -7.4251758672628343e-01  -7.3791441087761211e-01  -7.3311207865234618e-01  -7.2787848437185965e-01  -7.2238517430145976e-01  -7.1640384983445982e-01  -7.1005407438208312e-01  -7.0324389203054183e-01  -6.9603213163482802e-01  -6.8832837943287273e-01  -6.8023280893269644e-01  -6.7166794677172081e-01  -6.6269339104255864e-01  -6.5329706606955762e-01  -6.4357580827053351e-01  -6.3346446649719623e-01  -6.2308257548773605e-01  -6.1239747262476207e-01  -6.0153411057617134e-01  -5.9044761247948752e-01  -5.7925937727180288e-01  -5.6798343179188049e-01  -5.5662232246877485e-01  -5.4532220234458884e-01  -5.3415712344644140e-01  -5.2301467354607867e-01  -5.1206409147501741e-01  -5.0126138019650335e-01  -4.9070809177133246e-01  -4.8040806810318848e-01  -4.7037651860402324e-01  -4.6059878960955103e-01  -4.4209281962701724e-01  -4.3326986937312373e-01  -4.2481309271456147e-01  -4.1673523238619492e-01  -4.0896568126902844e-01  -4.0144537673223651e-01  -3.9425020853653991e-01  -3.8736494711423097e-01  -3.8075224570931104e-01  -3.7438623144943189e-01  -3.6827572030394734e-01  -3.6238535514533732e-01  -3.5669685680572472e-01  -3.5122635131050051e-01  -3.4592867936743377e-01  -3.4081531392915754e-01  -3.3585989299695634e-01  -3.3107838256411581e-01  -3.2644288644919045e-01  -3.2197198514754244e-01  -3.1766560359203477e-01  -3.1352018622860428e-01  -3.0954175747184798e-01  -3.0575390333701175e-01  -3.0217356762298081e-01  -2.9880200313846816e-01  -2.9568499702327172e-01  -2.9283488301240801e-01  -2.9027206865287636e-01  -2.8800441610089578e-01  -2.8612801184186848e-01  -2.8459223260141236e-01  -2.8348295184412131e-01  -2.8280068429352118e-01  -2.8256469626500880e-01  -2.8280213366473234e-01  -2.8352910461735437e-01  -2.8473661431357078e-01  -2.8644671685793710e-01  -2.8862887707498025e-01  -2.9131220081105658e-01  -2.9444339414969745e-01  -2.9806216034839506e-01  -3.0209256453096711e-01  -3.0655877981798990e-01  -3.1143774642180627e-01  -3.1674267225044672e-01  -3.2239936335341279e-01  -3.2848573873609688e-01  -3.3494162336061789e-01  -3.4177281323351033e-01  -3.4907486716255609e-01  -3.5675244099076597e-01  -3.6486874987965412e-01  -3.7348424914265138e-01  -3.8251051360239802e-01  -3.9212044250665817e-01  -4.0215558825730086e-01  -4.1269875044604204e-01  -4.2393577140220723e-01  -4.3553289086133201e-01  -4.4765266235297874e-01  -4.6034379056917130e-01  -4.7360294181477741e-01  -4.8727288787226503e-01  -5.0147781527154489e-01  -5.1609008801213729e-01  -5.3119257603834913e-01  -5.4650682800154493e-01  -5.6206784547665212e-01  -5.7798753118113844e-01  -5.9396444870398091e-01  -6.1019864591936923e-01  -6.2652460648899366e-01  -6.4256837141366197e-01  -6.5838765551064404e-01  -6.7405611826725065e-01  -6.8947903147091660e-01  -7.1856375313133125e-01  -7.3211919518211821e-01  -7.4491725921035323e-01  -7.5664541838097199e-01  -7.6727738351890173e-01  -7.7666152341982775e-01  -7.8481651267639374e-01  -7.9157318378633434e-01  -7.9666212454234131e-01  -8.0009842948613141e-01  -8.0164209490240956e-01  -8.0157388248742545e-01  -7.9932845816246756e-01  -7.9526265331370172e-01  -7.8889304655936543e-01  -7.8010416290898910e-01  -7.6920517217662066e-01  -7.5595083063396817e-01  -7.4042306978395522e-01  -7.2224015810309050e-01  -7.0178492834562489e-01  -6.7863886191805511e-01  -6.5300126068512365e-01  -6.2504342359016984e-01  -5.9450396528449712e-01  -5.6170497910626160e-01  -5.2595904322234455e-01  -4.8800087279650806e-01  -4.4782223474562349e-01  -4.0518420303143637e-01  -3.6043817782856147e-01  -3.1331808065758882e-01  -2.6426716580279719e-01  -2.1290867516044934e-01  -1.5996882930714285e-01  -1.0485913419837316e-01  -4.8278923222373774e-02  1.0188367825372443e-02  6.9796859993465771e-02  1.3099226680343762e-01  1.9362562580169268e-01  2.5701521921221293e-01  3.2113159958496396e-01  3.8656815210667256e-01  4.5256058501385288e-01  5.1878316711706929e-01  5.8562806530638889e-01  6.5251903070286565e-01  7.1924606079543618e-01  7.8618082978000847e-01  8.5253125841360489e-01  9.1869230346837039e-01  9.8394849945555518e-01  1.0486376362999128e+00  1.1120089623092495e+00  1.1746002627153396e+00  1.2358566846444827e+00  1.2954961065807289e+00  1.3534565530905625e+00  1.4098699871665819e+00  1.4643165593299690e+00  1.5163608193260849e+00  1.5666188389337323e+00  1.6142619506377667e+00  1.6596128305214806e+00  1.7021686721684453e+00  1.7421596245921298e+00  1.7795115930971552e+00  1.8134118943512176e+00  1.8441571955742151e+00  1.8727025953497163e+00  1.8970931764922379e+00  1.9184695417587045e+00  1.9366529981059188e+00  1.9508990940754574e+00  1.9625602502368800e+00  1.9699821845205920e+00  1.9740374802353713e+00  1.9715628234204141e+00  1.9650145387015883e+00  1.9549435535884385e+00  1.9413798495641028e+00  1.9242712491973943e+00  1.9031783484240661e+00  1.8790005368483420e+00  1.8518565029091891e+00  1.8211544500050605e+00  1.7870344850589841e+00  1.7498743940771948e+00  1.7095263966221683e+00  1.6664514554185013e+00  1.6202644466835809e+00  1.5715219801582139e+00  1.5198816199485092e+00  1.4659724179255282e+00  1.4094394937092856e+00  1.3509645192242064e+00  1.2901722241241840e+00  1.2276641293043706e+00  1.1630169214731680e+00  1.0969520467322236e+00  1.0291900598647459e+00  9.6037038058669411e-01  8.9011431175153966e-01  8.1899757535750395e-01  7.4688414357412325e-01  6.7438899423439391e-01  6.0115644262642587e-01  5.2745222695137861e-01  4.5389944157692474e-01  3.8013544428904239e-01  3.0652210116741635e-01  2.3315192959270120e-01  1.6025398746422739e-01  8.7949965839264330e-02  1.6342981960518952e-02  -5.4026985385508944e-02  -1.2363364324687529e-01  -1.9176913794565975e-01  -2.5901159714605598e-01  -3.2463856034341620e-01  -3.8822460941248638e-01  -4.5061315648871592e-01  -5.1092529178772572e-01  -5.6951647154542051e-01  -6.2625313393602078e-01  -6.8041911345682959e-01  -7.3248761283568198e-01  -7.8233443084633369e-01  -8.3011907209417801e-01  -8.7516948596340116e-01  -9.1808490559104994e-01  -9.5811521615570094e-01  -9.9585520771934521e-01  -1.0308271616848468e+00  -1.0634549796012556e+00  -1.0933162643299743e+00  -1.1208014888622380e+00  -1.1454225770932425e+00  -1.1675120101765353e+00  -1.1870499362047044e+00  -1.2042409333411050e+00  -1.2188937712351653e+00  -1.2310816309890809e+00  -1.2410095920236086e+00  -1.2489262168059485e+00  -1.2545369475465984e+00  -1.2575653535841764e+00  -1.2591360175283481e+00  -1.2586202363901056e+00  -1.2563150019236577e+00  -1.2522411520734869e+00  -1.2466052110052082e+00  -1.2394743741269061e+00  -1.2310035706653493e+00  -1.2213449140531878e+00  -1.0416047027886760e-01  4.4310301210139180e-02  -6.5456396103642667e-01  -2.8784238028320450e-02  -1.9781626579655867e-01  3.9307162216348925e-02  4.5404488173600988e-01  9.2050247418882647e-01  9.5493937155172881e-01  5.4696204760150091e-01  2.7626224430778396e-01  -8.2427739772251984e-01  -7.8387333055363662e-01  -4.5395300485946172e-01  -3.7197890995412347e-01  -1.6501341559540997e-01  -4.9651006191113102e-02  -3.1188391050034642e-01  2.6123106647322247e-01  8.5851465747135802e-01  1.3603764724225047e+00  1.3004146663165488e+00  6.9625522515213001e-01  2.3016700858693995e-01  -6.2357564533997656e-01  -7.7557420759331364e-01  -2.7073374071083850e-01  -9.4569192706593891e-02  -2.6791036670291130e-01  1.9076155979155709e-01  -2.3954749880812265e-01  -2.7241682568816955e-01  -7.5737798642076626e-01  -7.6558879121847179e-01  -7.6724908287261750e-01  -4.0737012982584841e-01  1.0567866980287004e+00  4.5322496185871086e-01  -3.1258581727303891e-02  7.7444692491802147e-01  1.3937592401633681e+00  1.7023096179694195e+00  1.6353507132689296e+00  -3.2805958994342671e-01  4.1964538538971453e-02  -1.5393037778207292e-02  -3.4646656327123804e-01  -8.0893444756280752e-01  1.3299410131504036e-02  -4.2451373007226276e-02  -5.3168427865848866e-01  -6.6720001212304603e-01  -2.5168465740978120e-02  1.3477873909761715e+00  -8.9411544708441246e-02  -7.2584219958086704e-01  -7.5187967251054710e-01  -7.8462379220912715e-01  -2.8107118035703665e-01  -2.8455030288428673e-01  -3.3985514277305523e-01  -8.2217305005865784e-02  -7.7090446476855035e-01  -3.7585637978844666e-01  9.1670411175667921e-01  3.9692814271137528e-01  -8.2494799599909224e-03  -8.5422955458348748e-01  -9.4786938310177793e-01  -1.0246874532201815e+00  -4.2924455849101470e-02  -4.3699305255151966e-01  -3.2379366847149232e-01  -2.7774946054392885e-01  1.8364910475647300e+00  1.8377405528991821e+00  1.5874301542689997e+00  1.1520028268584581e+00  -4.7617525870756672e-01  3.6984767991223516e-01  -8.5045290862001424e-02  -4.2785351312378334e-01  -5.5737341902642479e-01  -3.9058924358182373e-01  -4.7351534743951212e-01  1.0053141600971642e-01  1.7363320289666839e+00  6.2638833795003734e-02  -6.1997035535097345e-01  -1.1066059863515600e+00  -5.7398516048124881e-01  2.3445549325970350e-01  -2.4103820601622619e-01  -1.2418513493479585e-01  -4.3256341619106303e-01  1.8585378767802088e-01  -3.1626248473411284e-01  -6.8136554361306667e-01  -2.8563435304839951e-01  -3.8665006629043269e-01  -4.9733615832371841e-01  1.5258035093758067e+00  4.1653081303480449e-01  1.2223519380587806e+00  1.6999300014163343e-01  -2.4296926339393043e-01  -3.1971548620909257e-01  -2.9575618554869826e-01  -3.4785512810386238e-01  -3.0316240063044769e-01  7.0547199601453081e-01  -7.7616708034261062e-01  -1.3266868607266125e-01  1.2460141116667645e-01  -1.1352171419648074e+00  -8.6006764305636263e-01  -7.2343420540159153e-01  -7.3773364682525577e-01  -4.6316146650372779e-02  7.4402677573622580e-02  -8.3147865023156275e-01  2.7607263333227527e-01  5.8135183472068974e-02  3.1317802821952012e-02  -4.5159453822379715e-02  -8.2807799895003708e-03  6.4832353717133728e-01  7.2400486611091025e-02  3.2391529542215486e-01  1.3653997496994092e+00  -1.0966418220285056e-02  -6.2614342229547038e-01  -6.2379826067689292e-01  1.1395795761065139e+00  -9.2484831735040585e-01  1.1966151090753528e-01  2.9593454724891938e-01  5.6264865276437603e-01  -7.1097550496459605e-01  9.1745419910542314e-01  9.7653736253171397e-01  -3.2168411996843604e-01  -7.6104194731619768e-01  7.0362315721349977e-01  -1.0911680985977332e+00  -1.0552445363994531e+00  -2.2790061232887815e-01  -5.0180857347473551e-01  -1.9694549325376429e-01  -2.8196368448045950e-01  -4.8317307980717272e-01  1.0771363774841678e+00  -3.2978908694480846e-01  -3.6319862804280834e-01  2.8309886715614646e-01  3.3548481304718394e-02  1.7610996961787915e+00  4.1915798971393492e-01  1.9214774207335519e+00  1.8903983045560533e+00  1.5031259486813655e+00  -1.2948343834796469e-01  2.3034482398885242e-01  8.5100552945779010e-03  3.1502867609890517e-02  -8.3565985468965293e-02  -6.5363234935613579e-01  2.3879336582038146e-01  -6.5794105770493083e-01  -1.8122512055414949e-01  2.1389119026883208e-01  -5.7546900830006775e-01  -4.9184960854220278e-01  1.1667694081675602e-01  -1.1456772788664640e+00  -2.8644109175103855e-01  -8.0258094146117021e-01  -4.5333221059500067e-01  -5.3601608726839123e-01  5.9904092073402426e-01  1.8319721767472441e-01  -1.6931639319446268e-01  -1.9665557321990876e-01  -5.5523732817436566e-01  4.2471838833722209e-01  -8.7794667685877792e-01  2.4565694879232841e-01  -1.5526743882864535e-01  6.7889937650446530e-01  -9.8520778534853370e-01  3.6881171062588008e-02  -7.2464667182675013e-01  -1.6277194000318501e-01  2.7460334154204269e-01  4.3338848575990097e-01  3.9021994051807135e-01  -2.8449687259236356e-01  1.8896861266068188e+00  -6.8205143037808946e-01  1.8239142063736138e+00  1.6960049997120921e+00  1.5720408771284395e+00  4.7607720218867150e-01  -4.1852527004981005e-01  3.6984704199574947e-02  -5.7756791045382683e-01  8.8731017665423473e-01  -1.7946570156227584e-01  -4.5616462848051764e-01  -8.4351281753326379e-01  -8.2429007759665052e-02  -1.9733014377904171e-01  -7.3659201765450444e-01  1.1488902816920854e+00  -7.6209668824521204e-01  -4.0391723767786053e-01  -7.0471925402319802e-01  1.0743537609463534e-01  3.7171987268881418e-01  -6.9920847726503935e-02  3.7737492959660202e-01  5.5909729156496191e-01  -3.1099672666232042e-01  -3.2854244366441737e-01  7.3268605491960515e-01  -4.7208715837719817e-01  -6.5193731871273986e-01  -5.0807231612375980e-01  -4.5309049235758264e-02  5.1757423154925186e-01  -6.5919140064783210e-01  -2.0994572990851498e-02  -1.1997847990906367e+00  1.3617909277068261e+00  -1.5689643927993763e-01  1.3674360392902198e+00  4.0929666118981622e-01  -9.1284646551561988e-01  -3.6676352709663013e-01  -7.3051134565998732e-01  -2.9677022528277530e-01  -1.1186383025263955e+00  1.9203989420043321e-01  2.7381611366489322e-02  6.4092224043942672e-02  -6.8451546687626125e-02  -4.0536378805265388e-01  2.0334005430194543e-01  5.1527862896620658e-01  -3.3876050881305397e-01  -7.5144014836702977e-01  7.5502235053272714e-03  3.5534129897366223e-01  1.3366901057192940e-01  2.3622488073206555e-01  -7.5268641198374076e-01  -7.7608365381279887e-01  -7.3268323090706555e-01  -2.9247751213674167e-01  -6.9189671871984781e-01  1.6694984268281610e+00  -7.8737008578238832e-01  -2.0538742485746977e-01  -2.4373743535648834e-01  1.7116799355212461e-01  -3.2282869417106501e-02  7.1371916201949237e-01  1.0911360106141610e+00  -2.3684940725526359e-02  3.1185382499221576e-01  2.5371718660372328e-01  1.3055142308309631e-01  -1.0850405054659737e+00  -1.1880925928308790e+00  -7.1203153828110910e-01  1.1180853538385163e-01  2.1588271212986881e-01  -2.0026803165171894e-01  8.7112847815266037e-01  1.2494712815341342e+00  -8.1147640961682144e-02  