<?xml version="1.0"?>
<VTKFile type="UnstructuredGrid"  version="0.1"  >
<UnstructuredGrid>
<Piece  NumberOfPoints="10201" NumberOfCells="20000">
<Points>
<DataArray  type="Float64"  NumberOfComponents="3"  format="ascii">0 0 0  0.01 0 0  0.02 0 0  0.03 0 0  0.04 0 0  0.05 0 0  0.06 0 0  0.07000000000000001 0 0  0.08 0 0  0.09 0 0  0.1 0 0  0.11 0 0  0.12 0 0  0.13 0 0  0.14 0 0  0.15 0 0  0.16 0 0  0.17 0 0  0.18 0 0  0.19 0 0  0.2 0 0  0.21 0 0  0.22 0 0  0.23 0 0  0.24 0 0  0.25 0 0  0.26 0 0  0.27 0 0  0.28 0 0  0.29 0 0  0.3 0 0  0.31 0 0  0.32 0 0  0.33 0 0  0.34 0 0  0.35 0 0  0.36 0 0  0.37 0 0  0.38 0 0  0.39 0 0  0.4 0 0  0.41 0 0  0.42 0 0  0.43 0 0  0.44 0 0  0.45 0 0  0.46 0 0  0.47 0 0  0.48 0 0  0.49 0 0  0.5 0 0  0.51 0 0  0.52 0 0  0.53 0 0  0.54 0 0  0.55 0 0  0.5600000000000001 0 0  0.57 0 0  0.58 0 0  0.59 0 0  0.6 0 0  0.61 0 0  0.62 0 0  0.63 0 0  0.64 0 0  0.65 0 0  0.66 0 0  0.67 0 0  0.68 0 0  0.6899999999999999 0 0  0.7 0 0  0.71 0 0  0.72 0 0  0.73 0 0  0.74 0 0  0.75 0 0  0.76 0 0  0.77 0 0  0.78 0 0  0.79 0 0  0.8 0 0  0.8100000000000001 0 0  0.82 0 0  0.83 0 0  0.84 0 0  0.85 0 0  0.86 0 0  0.87 0 0  0.88 0 0  0.89 0 0  0.9 0 0  0.91 0 0  0.92 0 0  0.93 0 0  0.9399999999999999 0 0  0.95 0 0  0.96 0 0  0.97 0 0  0.98 0 0  0.99 0 0  1 0 0  0 0.01 0  0.01 0.01 0  0.02 0.01 0  0.03 0.01 0  0.04 0.01 0  0.05 0.01 0  0.06 0.01 0  0.07000000000000001 0.01 0  0.08 0.01 0  0.09 0.01 0  0.1 0.01 0  0.11 0.01 0  0.12 0.01 0  0.13 0.01 0  0.14 0.01 0  0.15 0.01 0  0.16 0.01 0  0.17 0.01 0  0.18 0.01 0  0.19 0.01 0  0.2 0.01 0  0.21 0.01 0  0.22 0.01 0  0.23 0.01 0  0.24 0.01 0  0.25 0.01 0  0.26 0.01 0  0.27 0.01 0  0.28 0.01 0  0.29 0.01 0  0.3 0.01 0  0.31 0.01 0  0.32 0.01 0  0.33 0.01 0  0.34 0.01 0  0.35 0.01 0  0.36 0.01 0  0.37 0.01 0  0.38 0.01 0  0.39 0.01 0  0.4 0.01 0  0.41 0.01 0  0.42 0.01 0  0.43 0.01 0  0.44 0.01 0  0.45 0.01 0  0.46 0.01 0  0.47 0.01 0  0.48 0.01 0  0.49 0.01 0  0.5 0.01 0  0.51 0.01 0  0.52 0.01 0  0.53 0.01 0  0.54 0.01 0  0.55 0.01 0  0.5600000000000001 0.01 0  0.57 0.01 0  0.58 0.01 0  0.59 0.01 0  0.6 0.01 0  0.61 0.01 0  0.62 0.01 0  0.63 0.01 0  0.64 0.01 0  0.65 0.01 0  0.66 0.01 0  0.67 0.01 0  0.68 0.01 0  0.6899999999999999 0.01 0  0.7 0.01 0  0.71 0.01 0  0.72 0.01 0  0.73 0.01 0  0.74 0.01 0  0.75 0.01 0  0.76 0.01 0  0.77 0.01 0  0.78 0.01 0  0.79 0.01 0  0.8 0.01 0  0.8100000000000001 0.01 0  0.82 0.01 0  0.83 0.01 0  0.84 0.01 0  0.85 0.01 0  0.86 0.01 0  0.87 0.01 0  0.88 0.01 0  0.89 0.01 0  0.9 0.01 0  0.91 0.01 0  0.92 0.01 0  0.93 0.01 0  0.9399999999999999 0.01 0  0.95 0.01 0  0.96 0.01 0  0.97 0.01 0  0.98 0.01 0  0.99 0.01 0  1 0.01 0  0 0.02 0  0.01 0.02 0  0.02 0.02 0  0.03 0.02 0  0.04 0.02 0  0.05 0.02 0  0.06 0.02 0  0.07000000000000001 0.02 0  0.08 0.02 0  0.09 0.02 0  0.1 0.02 0  0.11 0.02 0  0.12 0.02 0  0.13 0.02 0  0.14 0.02 0  0.15 0.02 0  0.16 0.02 0  0.17 0.02 0  0.18 0.02 0  0.19 0.02 0  0.2 0.02 0  0.21 0.02 0  0.22 0.02 0  0.23 0.02 0  0.24 0.02 0  0.25 0.02 0  0.26 0.02 0  0.27 0.02 0  0.28 0.02 0  0.29 0.02 0  0.3 0.02 0  0.31 0.02 0  0.32 0.02 0  0.33 0.02 0  0.34 0.02 0  0.35 0.02 0  0.36 0.02 0  0.37 0.02 0  0.38 0.02 0  0.39 0.02 0  0.4 0.02 0  0.41 0.02 0  0.42 0.02 0  0.43 0.02 0  0.44 0.02 0  0.45 0.02 0  0.46 0.02 0  0.47 0.02 0  0.48 0.02 0  0.49 0.02 0  0.5 0.02 0  0.51 0.02 0  0.52 0.02 0  0.53 0.02 0  0.54 0.02 0  0.55 0.02 0  0.5600000000000001 0.02 0  0.57 0.02 0  0.58 0.02 0  0.59 0.02 0  0.6 0.02 0  0.61 0.02 0  0.62 0.02 0  0.63 0.02 0  0.64 0.02 0  0.65 0.02 0  0.66 0.02 0  0.67 0.02 0  0.68 0.02 0  0.6899999999999999 0.02 0  0.7 0.02 0  0.71 0.02 0  0.72 0.02 0  0.73 0.02 0  0.74 0.02 0  0.75 0.02 0  0.76 0.02 0  0.77 0.02 0  0.78 0.02 0  0.79 0.02 0  0.8 0.02 0  0.8100000000000001 0.02 0  0.82 0.02 0  0.83 0.02 0  0.84 0.02 0  0.85 0.02 0  0.86 0.02 0  0.87 0.02 0  0.88 0.02 0  0.89 0.02 0  0.9 0.02 0  0.91 0.02 0  0.92 0.02 0  0.93 0.02 0  0.9399999999999999 0.02 0  0.95 0.02 0  0.96 0.02 0  0.97 0.02 0  0.98 0.02 0  0.99 0.02 0  1 0.02 0  0 0.03 0  0.01 0.03 0  0.02 0.03 0  0.03 0.03 0  0.04 0.03 0  0.05 0.03 0  0.06 0.03 0  0.07000000000000001 0.03 0  0.08 0.03 0  0.09 0.03 0  0.1 0.03 0  0.11 0.03 0  0.12 0.03 0  0.13 0.03 0  0.14 0.03 0  0.15 0.03 0  0.16 0.03 0  0.17 0.03 0  0.18 0.03 0  0.19 0.03 0  0.2 0.03 0  0.21 0.03 0  0.22 0.03 0  0.23 0.03 0  0.24 0.03 0  0.25 0.03 0  0.26 0.03 0  0.27 0.03 0  0.28 0.03 0  0.29 0.03 0  0.3 0.03 0  0.31 0.03 0  0.32 0.03 0  0.33 0.03 0  0.34 0.03 0  0.35 0.03 0  0.36 0.03 0  0.37 0.03 0  0.38 0.03 0  0.39 0.03 0  0.4 0.03 0  0.41 0.03 0  0.42 0.03 0  0.43 0.03 0  0.44 0.03 0  0.45 0.03 0  0.46 0.03 0  0.47 0.03 0  0.48 0.03 0  0.49 0.03 0  0.5 0.03 0  0.51 0.03 0  0.52 0.03 0  0.53 0.03 0  0.54 0.03 0  0.55 0.03 0  0.5600000000000001 0.03 0  0.57 0.03 0  0.58 0.03 0  0.59 0.03 0  0.6 0.03 0  0.61 0.03 0  0.62 0.03 0  0.63 0.03 0  0.64 0.03 0  0.65 0.03 0  0.66 0.03 0  0.67 0.03 0  0.68 0.03 0  0.6899999999999999 0.03 0  0.7 0.03 0  0.71 0.03 0  0.72 0.03 0  0.73 0.03 0  0.74 0.03 0  0.75 0.03 0  0.76 0.03 0  0.77 0.03 0  0.78 0.03 0  0.79 0.03 0  0.8 0.03 0  0.8100000000000001 0.03 0  0.82 0.03 0  0.83 0.03 0  0.84 0.03 0  0.85 0.03 0  0.86 0.03 0  0.87 0.03 0  0.88 0.03 0  0.89 0.03 0  0.9 0.03 0  0.91 0.03 0  0.92 0.03 0  0.93 0.03 0  0.9399999999999999 0.03 0  0.95 0.03 0  0.96 0.03 0  0.97 0.03 0  0.98 0.03 0  0.99 0.03 0  1 0.03 0  0 0.04 0  0.01 0.04 0  0.02 0.04 0  0.03 0.04 0  0.04 0.04 0  0.05 0.04 0  0.06 0.04 0  0.07000000000000001 0.04 0  0.08 0.04 0  0.09 0.04 0  0.1 0.04 0  0.11 0.04 0  0.12 0.04 0  0.13 0.04 0  0.14 0.04 0  0.15 0.04 0  0.16 0.04 0  0.17 0.04 0  0.18 0.04 0  0.19 0.04 0  0.2 0.04 0  0.21 0.04 0  0.22 0.04 0  0.23 0.04 0  0.24 0.04 0  0.25 0.04 0  0.26 0.04 0  0.27 0.04 0  0.28 0.04 0  0.29 0.04 0  0.3 0.04 0  0.31 0.04 0  0.32 0.04 0  0.33 0.04 0  0.34 0.04 0  0.35 0.04 0  0.36 0.04 0  0.37 0.04 0  0.38 0.04 0  0.39 0.04 0  0.4 0.04 0  0.41 0.04 0  0.42 0.04 0  0.43 0.04 0  0.44 0.04 0  0.45 0.04 0  0.46 0.04 0  0.47 0.04 0  0.48 0.04 0  0.49 0.04 0  0.5 0.04 0  0.51 0.04 0  0.52 0.04 0  0.53 0.04 0  0.54 0.04 0  0.55 0.04 0  0.5600000000000001 0.04 0  0.57 0.04 0  0.58 0.04 0  0.59 0.04 0  0.6 0.04 0  0.61 0.04 0  0.62 0.04 0  0.63 0.04 0  0.64 0.04 0  0.65 0.04 0  0.66 0.04 0  0.67 0.04 0  0.68 0.04 0  0.6899999999999999 0.04 0  0.7 0.04 0  0.71 0.04 0  0.72 0.04 0  0.73 0.04 0  0.74 0.04 0  0.75 0.04 0  0.76 0.04 0  0.77 0.04 0  0.78 0.04 0  0.79 0.04 0  0.8 0.04 0  0.8100000000000001 0.04 0  0.82 0.04 0  0.83 0.04 0  0.84 0.04 0  0.85 0.04 0  0.86 0.04 0  0.87 0.04 0  0.88 0.04 0  0.89 0.04 0  0.9 0.04 0  0.91 0.04 0  0.92 0.04 0  0.93 0.04 0  0.9399999999999999 0.04 0  0.95 0.04 0  0.96 0.04 0  0.97 0.04 0  0.98 0.04 0  0.99 0.04 0  1 0.04 0  0 0.05 0  0.01 0.05 0  0.02 0.05 0  0.03 0.05 0  0.04 0.05 0  0.05 0.05 0  0.06 0.05 0  0.07000000000000001 0.05 0  0.08 0.05 0  0.09 0.05 0  0.1 0.05 0  0.11 0.05 0  0.12 0.05 0  0.13 0.05 0  0.14 0.05 0  0.15 0.05 0  0.16 0.05 0  0.17 0.05 0  0.18 0.05 0  0.19 0.05 0  0.2 0.05 0  0.21 0.05 0  0.22 0.05 0  0.23 0.05 0  0.24 0.05 0  0.25 0.05 0  0.26 0.05 0  0.27 0.05 0  0.28 0.05 0  0.29 0.05 0  0.3 0.05 0  0.31 0.05 0  0.32 0.05 0  0.33 0.05 0  0.34 0.05 0  0.35 0.05 0  0.36 0.05 0  0.37 0.05 0  0.38 0.05 0  0.39 0.05 0  0.4 0.05 0  0.41 0.05 0  0.42 0.05 0  0.43 0.05 0  0.44 0.05 0  0.45 0.05 0  0.46 0.05 0  0.47 0.05 0  0.48 0.05 0  0.49 0.05 0  0.5 0.05 0  0.51 0.05 0  0.52 0.05 0  0.53 0.05 0  0.54 0.05 0  0.55 0.05 0  0.5600000000000001 0.05 0  0.57 0.05 0  0.58 0.05 0  0.59 0.05 0  0.6 0.05 0  0.61 0.05 0  0.62 0.05 0  0.63 0.05 0  0.64 0.05 0  0.65 0.05 0  0.66 0.05 0  0.67 0.05 0  0.68 0.05 0  0.6899999999999999 0.05 0  0.7 0.05 0  0.71 0.05 0  0.72 0.05 0  0.73 0.05 0  0.74 0.05 0  0.75 0.05 0  0.76 0.05 0  0.77 0.05 0  0.78 0.05 0  0.79 0.05 0  0.8 0.05 0  0.8100000000000001 0.05 0  0.82 0.05 0  0.83 0.05 0  0.84 0.05 0  0.85 0.05 0  0.86 0.05 0  0.87 0.05 0  0.88 0.05 0  0.89 0.05 0  0.9 0.05 0  0.91 0.05 0  0.92 0.05 0  0.93 0.05 0  0.9399999999999999 0.05 0  0.95 0.05 0  0.96 0.05 0  0.97 0.05 0  0.98 0.05 0  0.99 0.05 0  1 0.05 0  0 0.06 0  0.01 0.06 0  0.02 0.06 0  0.03 0.06 0  0.04 0.06 0  0.05 0.06 0  0.06 0.06 0  0.07000000000000001 0.06 0  0.08 0.06 0  0.09 0.06 0  0.1 0.06 0  0.11 0.06 0  0.12 0.06 0  0.13 0.06 0  0.14 0.06 0  0.15 0.06 0  0.16 0.06 0  0.17 0.06 0  0.18 0.06 0  0.19 0.06 0  0.2 0.06 0  0.21 0.06 0  0.22 0.06 0  0.23 0.06 0  0.24 0.06 0  0.25 0.06 0  0.26 0.06 0  0.27 0.06 0  0.28 0.06 0  0.29 0.06 0  0.3 0.06 0  0.31 0.06 0  0.32 0.06 0  0.33 0.06 0  0.34 0.06 0  0.35 0.06 0  0.36 0.06 0  0.37 0.06 0  0.38 0.06 0  0.39 0.06 0  0.4 0.06 0  0.41 0.06 0  0.42 0.06 0  0.43 0.06 0  0.44 0.06 0  0.45 0.06 0  0.46 0.06 0  0.47 0.06 0  0.48 0.06 0  0.49 0.06 0  0.5 0.06 0  0.51 0.06 0  0.52 0.06 0  0.53 0.06 0  0.54 0.06 0  0.55 0.06 0  0.5600000000000001 0.06 0  0.57 0.06 0  0.58 0.06 0  0.59 0.06 0  0.6 0.06 0  0.61 0.06 0  0.62 0.06 0  0.63 0.06 0  0.64 0.06 0  0.65 0.06 0  0.66 0.06 0  0.67 0.06 0  0.68 0.06 0  0.6899999999999999 0.06 0  0.7 0.06 0  0.71 0.06 0  0.72 0.06 0  0.73 0.06 0  0.74 0.06 0  0.75 0.06 0  0.76 0.06 0  0.77 0.06 0  0.78 0.06 0  0.79 0.06 0  0.8 0.06 0  0.8100000000000001 0.06 0  0.82 0.06 0  0.83 0.06 0  0.84 0.06 0  0.85 0.06 0  0.86 0.06 0  0.87 0.06 0  0.88 0.06 0  0.89 0.06 0  0.9 0.06 0  0.91 0.06 0  0.92 0.06 0  0.93 0.06 0  0.9399999999999999 0.06 0  0.95 0.06 0  0.96 0.06 0  0.97 0.06 0  0.98 0.06 0  0.99 0.06 0  1 0.06 0  0 0.07000000000000001 0  0.01 0.07000000000000001 0  0.02 0.07000000000000001 0  0.03 0.07000000000000001 0  0.04 0.07000000000000001 0  0.05 0.07000000000000001 0  0.06 0.07000000000000001 0  0.07000000000000001 0.07000000000000001 0  0.08 0.07000000000000001 0  0.09 0.07000000000000001 0  0.1 0.07000000000000001 0  0.11 0.07000000000000001 0  0.12 0.07000000000000001 0  0.13 0.07000000000000001 0  0.14 0.07000000000000001 0  0.15 0.07000000000000001 0  0.16 0.07000000000000001 0  0.17 0.0700
[...]
<PointData  Scalars="f_51"> 
<DataArray  type="Float64"  Name="f_51"  format="ascii">0.0000000000000000e+00  0.0000000000000000e+00  0.0000000000000000e+00  0.0000000000000000e+00  0.0000000000000000e+00  0.0000000000000000e+00  0.0000000000000000e+00  0.0000000000000000e+00  0.0000000000000000e+00  0.0000000000000000e+00  0.0000000000000000e+00  0.0000000000000000e+00  0.0000000000000000e+00  0.0000000000000000e+00  0.0000000000000000e+00  0.0000000000000000e+00  0.0000000000000000e+00  0.0000000000000000e+00  0.0000000000000000e+00  0.0000000000000000e+00  0.0000000000000000e+00  0.0000000000000000e+00  0.0000000000000000e+00  0.0000000000000000e+00  0.0000000000000000e+00  0.0000000000000000e+00  0.0000000000000000e+00  0.0000000000000000e+00  0.0000000000000000e+00  0.0000000000000000e+00  0.0000000000000000e+00  0.0000000000000000e+00  0.0000000000000000e+00  0.0000000000000000e+00  0.0000000000000000e+00  0.0000000000000000e+00  0.0000000000000000e+00  0.0000000000000000e+00  0.0000000000000000e+00  0.0000000000000000e+00  0.0000000000000000e+00  0.0000000000000000e+00  0.0000000000000000e+00  0.0000000000000000e+00  0.0000000000000000e+00  0.0000000000000000e+00  0.0000000000000000e+00  0.0000000000000000e+00  0.0000000000000000e+00  0.0000000000000000e+00  0.0000000000000000e+00  0.0000000000000000e+00  0.0000000000000000e+00  0.0000000000000000e+00  0.0000000000000000e+00  0.0000000000000000e+00  0.0000000000000000e+00  0.0000000000000000e+00  0.0000000000000000e+00  0.0000000000000000e+00  0.0000000000000000e+00  0.0000000000000000e+00  0.0000000000000000e+00  0.0000000000000000e+00  0.0000000000000000e+00  0.0000000000000000e+00  0.0000000000000000e+00  0.0000000000000000e+00  0.0000000000000000e+00  0.0000000000000000e+00  0.0000000000000000e+00  0.0000000000000000e+00  0.0000000000000000e+00  0.0000000000000000e+00  0.0000000000000000e+00  0.0000000000000000e+00  0.0000000000000000e+00  0.0000000000000000e+00  0.0000000000000000e+00  0.0000000000000000e+00  0.0000000000000000e+00  0.0000000000000000e+00  0.0000000000000000e+00  0.0000000000000000e+00  0.0000000000000000e+00  0.0000000000000000e+00  0.0000000000000000e+00  0.0000000000000000e+00  0.0000000000000000e+00  0.0000000000000000e+00  0.0000000000000000e+00  0.0000000000000000e+00  0.0000000000000000e+00  0.0000000000000000e+00  0.0000000000000000e+00  0.0000000000000000e+00  0.0000000000000000e+00  0.0000000000000000e+00  0.0000000000000000e+00  0.0000000000000000e+00  0.0000000000000000e+00  0.0000000000000000e+00  -7.0476839493217599e-07  -1.3329799426249946e-06  -1.9546451236100600e-06  -2.6182467953443272e-06  -3.3520126143480252e-06  -4.1713241069313358e-06  -5.0835822345216466e-06  -6.0911665751250515e-06  -7.1931929810069599e-06  -8.3865995929565184e-06  -9.6668434909258235e-06  -1.1028362735101277e-05  -1.2464892553287631e-05  -1.3969687801349689e-05  -1.5535683491175078e-05  -1.7155613365553807e-05  -1.8822099404610561e-05  -2.0527720768205057e-05  -2.2265067901955994e-05  -2.4026785734365514e-05  -2.5805608702149237e-05  -2.7594389539924840e-05  -2.9386123223222400e-05  -3.1173967074933515e-05  -3.2951257779956096e-05  -3.4711525865029717e-05  -3.6448508066728040e-05  -3.8156157914163786e-05  -3.9828654783136401e-05  -4.1460411627562527e-05  -4.3046081556708023e-05  -4.4580563399183599e-05  -4.6059006374153498e-05  -4.7476813974767848e-05  -4.8829647157043093e-05  -5.0113426918229859e-05  -5.1324336341362082e-05  -5.2458822176606343e-05  -5.3513596024810691e-05  -5.4485635183983669e-05  -5.5372183215089270e-05  -5.6170750279364440e-05  -5.6879113295235676e-05  -5.7495315958750663e-05  -5.8017668667200769e-05  -5.8444748381255816e-05  -5.8775398456455519e-05  -5.9008728470292302e-05  -5.9144114066392353e-05  -5.9181196832465706e-05  -5.9119884223773778e-05  -5.8960349538876363e-05  -5.8703031949395397e-05  -5.8348636580499906e-05  -5.7898134633798515e-05  -5.7352763539355523e-05  -5.6714027118641221e-05  -5.5983695735418396e-05  -5.5163806406865295e-05  -5.4256662842655550e-05  -5.3264835375263298e-05  -5.2191160740426566e-05  -5.1038741662470386e-05  -4.9810946195016258e-05  -4.8511406763437322e-05  -4.7144018851155738e-05  -4.5712939267401797e-05  -4.4222583929172035e-05  -4.2677625084592511e-05  -4.1082987898364808e-05  -3.9443846311991416e-05  -3.7765618081403301e-05  -3.6053958881601977e-05  -3.4314755350805474e-05  -3.2554116923767767e-05  -3.0778366273216356e-05  -2.8994028136677803e-05  -2.7207816249057168e-05  -2.5426618023161137e-05  -2.3657476512257608e-05  -2.1907569038255859e-05  -2.0184181657839458e-05  -1.8494678339688016e-05  -1.6846463297720484e-05  -1.5246934305122373e-05  -1.3703423903437171e-05  -1.2223124063554739e-05  -1.0812987795954583e-05  -9.4795980208755837e-06  -8.2289889679002671e-06  -7.0663971983983376e-06  -5.9959057186643672e-06  -5.0199212813735055e-06  -4.1383835852066355e-06  -3.3475308298923827e-06  -2.6379125974934704e-06  -1.9911194423017088e-06  -1.3745716088143297e-06  -7.3474768960048645e-07  0.0000000000000000e+00  0.0000000000000000e+00  -1.3344528473763594e-06  -2.4647493979627599e-06  -3.5933253902647304e-06  -4.8715804404166202e-06  -6.3989490308698063e-06  -8.2359289504853266e-06  -1.0415945094732630e-05  -1.2953874536535262e-05  -1.5851812265176521e-05  -1.9102942408914267e-05  -2.2694167726736606e-05  -2.6607928154641680e-05  -3.0823484101949994e-05  -3.5317840678109321e-05  -4.0066426701266225e-05  -4.5043603213715877e-05  -5.0223051367323674e-05  -5.5578073498917702e-05  -6.1081830692317823e-05  -6.6707533109576134e-05  -7.2428594627818005e-05  -7.8218760061358743e-05  -8.4052210985448257e-05  -8.9903654586825671e-05  -9.5748398835990864e-05  -1.0156241646574949e-04  -1.0732239965477611e-04  -1.1300580688829059e-04  -1.1859090315509912e-04  -1.2405679440938991e-04  -1.2938345705422349e-04  -1.3455176307547209e-04  -1.3954350135836902e-04  -1.4434139564533041e-04  -1.4892911953708505e-04  -1.5329130889479750e-04  -1.5741357196538935e-04  -1.6128249752312917e-04  -1.6488566129588099e-04  -1.6821163092277960e-04  -1.7124996967049342e-04  -1.7399123911687782e-04  -1.7642700099315635e-04  -1.7854981835839390e-04  -1.8035325626266965e-04  -1.8183188203783654e-04  -1.8298126533696518e-04  -1.8379797802544064e-04  -1.8427959400823659e-04  -1.8442468905911785e-04  -1.8423284069849297e-04  -1.8370462814740974e-04  -1.8284163236583333e-04  -1.8164643616395948e-04  -1.8012262435597370e-04  -1.7827478390645651e-04  -1.7610850400063245e-04  -1.7363037595092502e-04  -1.7084799283385960e-04  -1.6776994873326327e-04  -1.6440583744793821e-04  -1.6076625050445812e-04  -1.5686277429835180e-04  -1.5270798616947806e-04  -1.4831544919958627e-04  -1.4369970550145487e-04  -1.3887626774903265e-04  -1.3386160867584970e-04  -1.2867314824353311e-04  -1.2332923815207479e-04  -1.1784914332657424e-04  -1.1225301996885626e-04  -1.0656188970306778e-04  -1.0079760926724853e-04  -9.4982835101402045e-05  -8.9140982047818950e-05  -8.3296175199027090e-05  -7.7473193685741634e-05  -7.1697404867749042e-05  -6.5994686941194065e-05  -6.0391337358342310e-05  -5.4913963601471301e-05  -4.9589351660280820e-05  -4.4444305883064873e-05  -3.9505451482573253e-05  -3.4798987538722273e-05  -3.0350373328880907e-05  -2.6183923413369894e-05  -2.2322275808191069e-05  -1.8785680695106666e-05  -1.5591031049276689e-05  -1.2750515776403259e-05  -1.0269711614408145e-05  -8.1448289866032741e-06  -6.3586736342543179e-06  -4.8746786562012497e-06  -3.6281926870305060e-06  -2.5145606674929022e-06  -1.3761336673497889e-06  0.0000000000000000e+00  0.0000000000000000e+00  -1.9600059249143007e-06  -3.5988695840727916e-06  -5.2957620524801493e-06  -7.3280446405883577e-06  -9.8859932392990429e-06  -1.3092093922964229e-05  -1.7018630835589541e-05  -2.1701448154258222e-05  -2.7150056818283893e-05  -3.3354890204628002e-05  -4.0292497434251775e-05  -4.7929285639847388e-05  -5.6224248001350137e-05  -6.5130980268682370e-05  -7.4599193769947782e-05  -8.4575868080120166e-05  -9.5006142582634831e-05  -1.0583401633941959e-04  -1.1700290532866654e-04  -1.2845609209254048e-04  -1.4013709309199465e-04  -1.5198996222417024e-04  -1.6395954410833229e-04  -1.7599168727747873e-04  -1.8803342491040747e-04  -2.0003312891966630e-04  -2.1194064187844789e-04  -2.2370739028726138e-04  -2.3528648195257767e-04  -2.4663278970588011e-04  -2.5770302328328640e-04  -2.6845579087737592e-04  -2.7885165163795599e-04  -2.8885316021801848e-04  -2.9842490432088010e-04  -3.0753353609389337e-04  -3.1614779812525005e-04  -3.2423854472736659e-04  -3.3177875912868138e-04  -3.3874356714206624e-04  -3.4511024782996362e-04  -3.5085824164192262e-04  -3.5596915645805900e-04  -3.6042677193108704e-04  -3.6421704247925797e-04  -3.6732809924229411e-04  -3.6975025127191757e-04  -3.7147598618764881e-04  -3.7249997048710885e-04  -3.7281904965812807e-04  -3.7243224819755665e-04  -3.7134076959893114e-04  -3.6954799632818870e-04  -3.6705948976358389e-04  -3.6388299003301184e-04  -3.6002841563921378e-04  -3.5550786272096956e-04  -3.5033560375646676e-04  -3.4452808547362300e-04  -3.3810392569122015e-04  -3.3108390877421016e-04  -3.2349097934624658e-04  -3.1535023386208328e-04  -3.0668890960140874e-04  -2.9753637060324573e-04  -2.8792409001515842e-04  -2.7788562828278177e-04  -2.6745660655065227e-04  -2.5667467458242478e-04  -2.4557947243381998e-04  -2.3421258502050974e-04  -2.2261748860946491e-04  -2.1083948811794802e-04  -1.9892564391841013e-04  -1.8692468660540734e-04  -1.7488691786248753e-04  -1.6286409514588884e-04  -1.5090929734096293e-04  -1.3907676779558497e-04  -1.2742173012160164e-04  -1.1600017078112949e-04  -1.0486858059829615e-04  -9.4083644757166521e-05  -8.3701867271783080e-05  -7.3779110919478219e-05  -6.4370026588033704e-05  -5.5527335971237442e-05  -4.7300917165688745e-05  -3.9736621887820503e-05  -3.2874722620711543e-05  -2.6747843406401962e-05  -2.1378162675236394e-05  -1.6773581993727076e-05  -1.2922422685937151e-05  -9.7860439628980032e-06  -7.2886100964580341e-06  -5.3032207319708067e-06  -3.6341626862424088e-06  -1.9968581100896226e-06  0.0000000000000000e+00  0.0000000000000000e+00  -2.6306031471644014e-06  -4.8871634891415743e-06  -7.3388054980200029e-06  -1.0398484008331635e-05  -1.4355142259610947e-05  -1.9400818254885829e-05  -2.5653416993030810e-05  -3.3174915746898976e-05  -4.1985370805245516e-05  -5.2073469507309734e-05  -6.3404415985754460e-05  -7.5925826887327682e-05  -8.9572164407961219e-05  -1.0426809918661065e-04  -1.1993108888044834e-04  -1.3647337868847128e-04  -1.5380357245467564e-04  -1.7182788174636217e-04  -1.9045113091360538e-04  -2.0957757516658264e-04  -2.2911157368828857e-04  -2.4895814898516825e-04  -2.6902345584316510e-04  -2.8921517754449354e-04  -3.0944286280964241e-04  -3.2961821383566841e-04  -3.4965533350501368e-04  -3.6947093812418651e-04  -3.8898454076429997e-04  -4.0811860930387283e-04  -4.2679870253692565e-04  -4.4495358714638272e-04  -4.6251533790986435e-04  -4.7941942316920484e-04  -4.9560477733187874e-04  -5.1101386196345617e-04  -5.2559271686131528e-04  -5.3929100236055675e-04  -5.5206203400542855e-04  -5.6386281061749277e-04  -5.7465403670071491e-04  -5.8440014004014290e-04  -5.9306928527232280e-04  -6.0063338413015048e-04  -6.0706810299111401e-04  -6.1235286828485096e-04  -6.1647087024300183e-04  -6.1940906540104256e-04  -6.2115817818792624e-04  -6.2171270186489136e-04  -6.2107089899971326e-04  -6.1923480158713117e-04  -6.1621021085032847e-04  -6.1200669668239418e-04  -6.0663759661084670e-04  -6.0012001409276677e-04  -5.9247481587303206e-04  -5.8372662806367758e-04  -5.7390383052855713e-04  -5.6303854908416461e-04  -5.5116664495446523e-04  -5.3832770084444499e-04  -5.2456500292314681e-04  -5.0992551793120383e-04  -4.9445986454889953e-04  -4.7822227807662628e-04  -4.6127056738762756e-04  -4.4366606300958898e-04  -4.2547355507228848e-04  -4.0676121971695378e-04  -3.8760053239105690e-04  -3.6806616623920411e-04  -3.4823587353237633e-04  -3.2819034773512597e-04  -3.0801306336839386e-04  -2.8779009025077501e-04  -2.6760987794824512e-04  -2.4756300527054633e-04  -2.2774188833857647e-04  -2.0824043899747569e-04  -1.8915366300767861e-04  -1.7057718429297402e-04  -1.5260667725562082e-04  -1.3533718335466256e-04  -1.1886228017745729e-04  -1.0327306025346954e-04  -8.8656861636319287e-05  -7.5095671073940841e-05  -6.2664090951376823e-05  -5.1426719764834301e-05  -4.1434738257128129e-05  -3.2721414266395141e-05  -2.5296133994290045e-05  -1.9136435277013216e-05  -1.4177372767323607e-05  -1.0297431059996432e-05  -7.3002194645686161e-06  -4.8914583027373899e-06  -2.6511641114161037e-06  0.0000000000000000e+00  0.0000000000000000e+00  -3.3752361152524291e-06  -6.4297677941197896e-06  -9.9130381987945437e-06  -1.4371595695072612e-05  -2.0193116947345415e-05  -2.7640468075499252e-05  -3.6879086973780829e-05  -4.7998921255702058e-05  -6.1031737282345648e-05  -7.5964597885780239e-05  -9.2750278790838076e-05  -1.1131530321614901e-04  -1.3156615360823191e-04  -1.5339409996094038e-04  -1.7667898093871230e-04  -2.0129219113971831e-04  -2.2709906395778693e-04  -2.5396079138435211e-04  -2.8173598628421833e-04  -3.1028196618204169e-04  -3.3945581801974949e-04  -3.6911528886709560e-04  -3.9911953683305303e-04  -4.2932976843922837e-04  -4.5960978275088802e-04  -4.8982643808630297e-04  -5.1985005375397293e-04  -5.4955475671654192e-04  -5.7881878114170952e-04  -6.0752472732043112e-04  -6.3555978529720655e-04  -6.6281592768120158e-04  -6.8919007542668433e-04  -7.1458423983871485e-04  -7.3890564363905903e-04  -7.6206682359023230e-04  -7.8398571690153343e-04  -8.0458573341386298e-04  -8.2379581536778663e-04  -8.4155048639238106e-04  -8.5778989120374261e-04  -8.7245982736621408e-04  -8.8551177034233892e-04  -8.9690289293618299e-04  -9.0659608011678459e-04  -9.1455994009241560e-04  -9.2076881239102216e-04  -9.2520277358686641e-04  -9.2784764119762211e-04  -9.2869497615977019e-04  -9.2774208417307959e-04  -9.2499201608733982e-04  -9.2045356738653826e-04  -9.1414127670756153e-04  -9.0607542321254021e-04  -8.9628202251633199e-04  -8.8479282075359922e-04  -8.7164528625350711e-04  -8.5688259817429742e-04  -8.4055363133457681e-04  -8.2271293636273829e-04  -8.0342071416968335e-04  -7.8274278363185234e-04  -7.6075054124976954e-04  -7.3752091141967592e-04  -7.1313628581914869e-04  -6.8768445025779495e-04  -6.6125849717563168e-04  -6.3395672177735606e-04  -6.0588249956091723e-04  -5.7714414272117529e-04  -5.4785473256773463e-04  -5.1813192466903624e-04  -4.8809772289451107e-04  -4.5787821783634477e-04  -4.2760328420355200e-04  -3.9740623062916696e-04  -3.6742339383041638e-04  -3.3779366709654301e-04  -3.0865795049435894e-04  -2.8015850676771798e-04  -2.5243820237875835e-04  -2.2563960710709883e-04  -1.9990391755672027e-04  -1.7536965909211726e-04  -1.5217110614366760e-04  -1.3043634114255875e-04  -1.1028484577025742e-04  -9.1824482392390390e-05  -7.5147675573805601e-05  -6.0326540117061304e-05  -4.7406620037782842e-05  -3.6398801003651624e-05  -2.7268840685242046e-05  -1.9923840554655117e-05  -1.4194884828399884e-05  -9.8150212505943984e-06  -6.3916984726891974e-06  -3.3723492066123623e-06  0.0000000000000000e+00  0.0000000000000000e+00  -4.2103421648784395e-06  -8.2888888747632271e-06  -1.3143450809049632e-05  -1.9443127427779706e-05  -2.7668205564676440e-05  -3.8148893810440024e-05  -5.1096258583954887e-05  -6.6627136055713514e-05  -8.4784126287230368e-05  -1.0555153759906300e-04  -1.2886803684935283e-04  -1.5463666362266248e-04  -1.8273276308509117e-04  -2.1301029013080132e-04  -2.4530684492252120e-04  -2.7944772140801768e-04  -3.1524918661581880e-04  -3.5252115818439474e-04  -3.9106940854245363e-04  -4.3069739422267703e-04  -4.7120778597697222e-04  -5.1240375802560716e-04  -5.5409008161010184e-04  -5.9607405801909478e-04  -6.3816631864558487e-04  -6.8018151382868064e-04  -7.2193890779292523e-04  -7.6326289359208272e-04  -8.0398343934249899e-04  -8.4393647500569785e-04  -8.8296422740851007e-04  -9.2091550996394153e-04  -9.5764597259510311e-04  -9.9301831660524357e-04  -1.0269024786312981e-03  -1.0591757873295732e-03  -1.0897230960419083e-03  -1.1184368943570643e-03  -1.1452174011983187e-03  -1.1699726418213693e-03  -1.1926185108866322e-03  -1.2130788235692460e-03  -1.2312853564827189e-03  -1.2471778800138100e-03  -1.2607041834936336e-03  -1.2718200944607321e-03  -1.2804894931043413e-03  -1.2866843228090728e-03  -1.2903845975551285e-03  -1.2915784067605094e-03  -1.2902619179834089e-03  -1.2864393777341217e-03  -1.2801231104765435e-03  -1.2713335157299548e-03  -1.2600990630125201e-03  -1.2464562841990915e-03  -1.2304497626976117e-03  -1.2121321186807515e-03  -1.1915639894422613e-03  -1.1688140037804272e-03  -1.1439587491433613e-03  -1.1170827301013756e-03  -1.0882783165387449e-03  -1.0576456797783090e-03  -1.0252927146642860e-03  -9.9133494542691446e-04  -9.5589541293122579e-04  -9.1910454066361264e-04  -8.8109997652380907e-04  -8.4202640715332012e-04  -8.0203534112722812e-04  -7.6128485684257789e-04  -7.1993931032465471e-04  -6.7816899740525695e-04  -6.3614976375616836e-04  -5.9406255502341765e-04  -5.5209289772090338e-04  -5.1043029949715123e-04  -4.6926755474339894e-04  -4.2879993807612296e-04  -3.8922426375249210e-04  -3.5073778323157768e-04  -3.1353688543775247e-04  -2.7781555423360112e-04  -2.4376352440092240e-04  -2.1156406005882287e-04  -1.8139125663018608e-04  -1.5340673758945590e-04  -1.2775557835149290e-04  -1.0456123964377709e-04  -8.3919229489156012e-05  -6.5889135215830563e-05  -5.0484575278707104e-05  -3.7660518907998922e-05  -2.7297316812739837e-05  -1.9180683053759539e-05  -1.2976746746392995e-05  -8.2010533460584648e-06  -4.1797784074737442e-06  0.0000000000000000e+00  0.0000000000000000e+00  -5.1448032809526286e-06  -1.0501145879640033e-05  -1.7107965008809709e-05  -2.5740077052384402e-05  -3.6959545563959917e-05  -5.1156669870977525e-05  -6.8583158829912076e-05  -8.9379169477911766e-05  -1.1359535474259784e-04  -1.4121079166256288e-04  -1.7214751469578048e-04  -2.0628227529832883e-04  -2.4345605715033838e-04  -2.8348178971505618e-04  -3.2615062306721668e-04  -3.7123705671124037e-04  -4.1850315564020182e-04  -4.6770203798580365e-04  -5.1858077924470667e-04  -5.7088284684121834e-04  -6.2435015426072916e-04  -6.7872480484621497e-04  -7.3375058046582712e-04  -7.8917421870802155e-04  -8.4474651330081196e-04  -9.0022326549944558e-04  -9.5536610878632503e-04  -1.0099432250249090e-03  -1.0637299669324920e-03  -1.1165093991743660e-03  -1.1680727683712861e-03  -1.2182199107277085e-03  -1.2667596047328763e-03  -1.3135098753851630e-03  -1.3582982555837965e-03  -1.4009620096757840e-03  -1.4413483236042288e-03  -1.4793144656497703e-03  -1.5147279213682079e-03  -1.5474665059878254e-03  -1.5774184572265994e-03  -1.6044825112124059e-03  -1.6285679639308586e-03  -1.6495947203796972e-03  -1.6674933333713303e-03  -1.6822050336930227e-03  -1.6936817531049561e-03  -1.7018861414284504e-03  -1.7067915787489498e-03  -1.7083821835303823e-03  -1.7066528172089768e-03  -1.7016090856055073e-03  -1.6932673372654307e-03  -1.6816546586067487e-03  -1.6668088655259017e-03  -1.6487784908829240e-03  -1.6276227670585146e-03  -1.6034116025476712e-03  -1.5762255513268022e-03  -1.5461557735031736e-03  -1.5133039855261283e-03  -1.4777823980071376e-03  -1.4397136389580417e-03  -1.3992306600105931e-03  -1.3564766229211542e-03  -1.3116047633863234e-03  -1.2647782288905420e-03  -1.2161698869654143e-03  -1.1659620998494523e-03  -1.1143464610794975e-03  -1.0615234889996754e-03  -1.0077022715125920e-03  -9.5310005558525354e-04  -8.9794177401307832e-04  -8.4245950068084600e-04  -7.8689182396387604e-04  -7.3148312588873477e-04  -6.7648275209447346e-04  -6.2214405433999630e-04  -5.6872328307998061e-04  -5.1647830220820379e-04  -4.6566709109114088e-04  -4.1654599003312887e-04  -3.6936763374792214e-04  -3.2437850252700921e-04  -2.8181600168041628e-04  -2.4190495537419605e-04  -2.0485336991108466e-04  -1.7084728239040163e-04  -1.4004446217656146e-04  -1.1256667368068909e-04  -8.8490139385526180e-05  -6.7833762841953017e-05  -5.0