<?xml version="1.0"?>
<VTKFile type="UnstructuredGrid"  version="0.1"  >
<UnstructuredGrid>
<Piece  NumberOfPoints="18731" NumberOfCells="36914">
<Points>
<DataArray  type="Float64"  NumberOfComponents="3"  format="ascii">0 0 0  0 0.1 0  0.5 0 0  -0.5 0.1 0  0.5 0.5 0  -0.5 0.5 0  0.4900000000000277 0.5 0  0.4800000000000555 0.5 0  0.4700000000000832 0.5 0  0.4600000000001109 0.5 0  0.4500000000001387 0.5 0  0.4400000000001664 0.5 0  0.4300000000001942 0.5 0  0.4200000000002219 0.5 0  0.4100000000002497 0.5 0  0.4000000000002774 0.5 0  0.3900000000003052 0.5 0  0.3800000000003328 0.5 0  0.3700000000003606 0.5 0  0.3600000000003883 0.5 0  0.3500000000004161 0.5 0  0.3400000000004438 0.5 0  0.3300000000004716 0.5 0  0.3200000000004993 0.5 0  0.3100000000005271 0.5 0  0.3000000000005548 0.5 0  0.2900000000005825 0.5 0  0.2800000000006103 0.5 0  0.2700000000006381 0.5 0  0.2600000000006658 0.5 0  0.2500000000006935 0.5 0  0.2400000000007212 0.5 0  0.230000000000749 0.5 0  0.2200000000007767 0.5 0  0.2100000000008044 0.5 0  0.2000000000008322 0.5 0  0.19000000000086 0.5 0  0.1800000000008877 0.5 0  0.1700000000009154 0.5 0  0.1600000000009431 0.5 0  0.1500000000009709 0.5 0  0.1400000000009986 0.5 0  0.1300000000010264 0.5 0  0.1200000000010541 0.5 0  0.1100000000010818 0.5 0  0.1000000000011096 0.5 0  0.09000000000113734 0.5 0  0.08000000000116503 0.5 0  0.07000000000119283 0.5 0  0.06000000000122058 0.5 0  0.05000000000124827 0.5 0  0.04000000000127607 0.5 0  0.03000000000130376 0.5 0  0.02000000000133151 0.5 0  0.01000000000135925 0.5 0  1.376121439022882e-12 0.5 0  -0.009999999998640763 0.5 0  -0.01999999999866864 0.5 0  -0.02999999999869629 0.5 0  -0.03999999999872406 0.5 0  -0.04999999999875182 0.5 0  -0.05999999999877947 0.5 0  -0.06999999999880724 0.5 0  -0.079999999998835 0.5 0  -0.08999999999886266 0.5 0  -0.09999999999889042 0.5 0  -0.1099999999989182 0.5 0  -0.1199999999989459 0.5 0  -0.1299999999989737 0.5 0  -0.1399999999990014 0.5 0  -0.1499999999990291 0.5 0  -0.1599999999990568 0.5 0  -0.1699999999990847 0.5 0  -0.1799999999991124 0.5 0  -0.1899999999991401 0.5 0  -0.1999999999991678 0.5 0  -0.2099999999991955 0.5 0  -0.2199999999992234 0.5 0  -0.2299999999992511 0.5 0  -0.2399999999992788 0.5 0  -0.2499999999993066 0.5 0  -0.2599999999993342 0.5 0  -0.269999999999362 0.5 0  -0.2799999999993897 0.5 0  -0.2899999999994175 0.5 0  -0.2999999999994452 0.5 0  -0.3099999999994729 0.5 0  -0.3199999999995007 0.5 0  -0.3299999999995284 0.5 0  -0.3399999999995562 0.5 0  -0.3499999999995839 0.5 0  -0.3599999999996116 0.5 0  -0.3699999999996393 0.5 0  -0.379999999999667 0.5 0  -0.3899999999996949 0.5 0  -0.3999999999997226 0.5 0  -0.4099999999997503 0.5 0  -0.419999999999778 0.5 0  -0.4299999999998058 0.5 0  -0.4399999999998336 0.5 0  -0.4499999999998613 0.5 0  -0.4599999999998891 0.5 0  -0.4699999999999167 0.5 0  -0.4799999999999445 0.5 0  -0.4899999999999722 0.5 0  -0.5 0.4900000000000276 0  -0.5 0.4800000000000553 0  -0.5 0.4700000000000829 0  -0.5 0.4600000000001105 0  -0.5 0.4500000000001382 0  -0.5 0.4400000000001658 0  -0.5 0.4300000000001934 0  -0.5 0.4200000000002211 0  -0.5 0.4100000000002487 0  -0.5 0.4000000000002764 0  -0.5 0.390000000000304 0  -0.5 0.3800000000003317 0  -0.5 0.3700000000003593 0  -0.5 0.360000000000387 0  -0.5 0.3500000000004146 0  -0.5 0.3400000000004422 0  -0.5 0.3300000000004698 0  -0.5 0.3200000000004975 0  -0.5 0.3100000000005251 0  -0.5 0.3000000000005419 0  -0.5 0.2900000000005241 0  -0.5 0.2800000000004954 0  -0.5 0.270000000000471 0  -0.5 0.2600000000004401 0  -0.5 0.2500000000004092 0  -0.5 0.2400000000003805 0  -0.5 0.2300000000003584 0  -0.5 0.220000000000334 0  -0.5 0.2100000000002966 0  -0.5 0.2000000000002766 0  -0.5 0.1900000000002565 0  -0.5 0.1800000000002191 0  -0.5 0.1700000000001947 0  -0.5 0.1600000000001724 0  -0.5 0.1500000000001329 0  -0.5 0.1400000000001128 0  -0.5 0.1300000000000862 0  -0.5 0.120000000000051 0  -0.5 0.1100000000000309 0  -0.4900954956324937 0.1 0  -0.4803675686266004 0.1 0  -0.4708130711346398 0.1 0  -0.4614289120717569 0.1 0  -0.4522120590309123 0.1 0  -0.4431595216190184 0.1 0  -0.4342683743928961 0.1 0  -0.4255357355753369 0.1 0  -0.4169587897296815 0.1 0  -0.4085347495564396 0.1 0  -0.4002608956223694 0.1 0  -0.392134549768817 0.1 0  -0.3841530802820801 0.1 0  -0.3763139069041518 0.1 0  -0.368614490226699 0.1 0  -0.3610523397261687 0.1 0  -0.3536250076370646 0.1 0  -0.3463300913774381 0.1 0  -0.3391652290979809 0.1 0  -0.3321281038796278 0.1 0  -0.325216436587205 0.1 0  -0.3184279907579932 0.1 0  -0.3117605706234954 0.1 0  -0.3052120187511536 0.1 0  -0.2987802141133201 0.1 0  -0.2924630769577326 0.1 0  -0.2862585614429823 0.1 0  -0.2801646621242813 0.1 0  -0.2741794046899353 0.1 0  -0.2683008533172032 0.1 0  -0.2625271056963038 0.1 0  -0.2568562930274252 0.1 0  -0.2512865791140745 0.1 0  -0.2458161646327382 0.1 0  -0.2404432762445227 0.1 0  -0.2351661749977761 0.1 0  -0.2299831558235955 0.1 0  -0.2248925413046883 0.1 0  -0.2198926814191803 0.1 0  -0.2149819597418545 0.1 0  -0.2101587869200582 0.1 0  -0.2054216025970573 0.1 0  -0.2007688730167618 0.1 0  -0.1961990928508366 0.1 0  -0.1917107813644364 0.1 0  -0.1873024910326345 0.1 0  -0.1829727906481701 0.1 0  -0.1787202808093566 0.1 0  -0.1745435847222389 0.1 0  -0.1704413512917699 0.1 0  -0.1664122533430965 0.1 0  -0.1624549870986954 0.1 0  -0.1585682705873112 0.1 0  -0.1547508474451522 0.1 0  -0.151001481377555 0.1 0  -0.1473189601088463 0.1 0  -0.1437020905718287 0.1 0  -0.1401497034259345 0.1 0  -0.1366606480136733 0.1 0  -0.1332337964098537 0.1 0  -0.1298680391633066 0.1 0  -0.126562286545821 0.1 0  -0.1233154694941535 0.1 0  -0.1201265371900346 0.1 0  -0.1169944574083666 0.1 0  -0.1139182163777365 0.1 0  -0.1108968192109779 0.1 0  -0.1079292881759991 0.1 0  -0.1050146619173239 0.1 0  -0.102151998623578 0.1 0  -0.09934037069788265 0.1 0  -0.09657886916238995 0.1 0  -0.09386659960426225 0.1 0  -0.09120268520621205 0.1 0  -0.088586262780604 0.1 0  -0.08601648675267276 0.1 0  -0.08349252426167275 0.1 0  -0.08101356012444416 0.1 0  -0.07857879043526217 0.1 0  -0.0761874289540635 0.1 0  -0.07383870045817348 0.1 0  -0.07153184461034939 0.1 0  -0.06926611697675311 0.1 0  -0.06704078224916993 0.1 0  -0.06485512110095765 0.1 0  -0.06270842623816225 0.1 0  -0.06060000257699205 0.1 0  -0.05852916834435762 0.1 0  -0.05649525331811156 0.1 0  -0.05449759908144947 0.1 0  -0.05253555901358975 0.1 0  -0.05060849884829471 0.1 0  -0.04871579433957185 0.1 0  -0.046856833076236 0.1 0  -0.04503101363577466 0.1 0  -0.04323774525772889 0.1 0  -0.04147644726139965 0.1 0  -0.03974654994271387 0.1 0  -0.03804749358291071 0.1 0  -0.0363787278726343 0.1 0  -0.03473971341944088 0.1 0  -0.03312991930279086 0.1 0  -0.03154882494409267 0.1 0  -0.02999591828287024 0.1 0  -0.0284706970932056 0.1 0  -0.02697266788712815 0.1 0  -0.02550134554616101 0.1 0  -0.02405625422374114 0.1 0  -0.02263692607198953 0.1 0  -0.02124290169968063 0.1 0  -0.01987373046035018 0.1 0  -0.01852896875593996 0.1 0  -0.01720818161104548 0.1 0  -0.01591094166658757 0.1 0  -0.01463682903003777 0.1 0  -0.01338543142192611 0.1 0  -0.01215634395263954 0.1 0  -0.01094916876929564 0.1 0  -0.009763514967270848 0.1 0  -0.008598999584689626 0.1 0  -0.007455245076009864 0.1 0  -0.00633188116551564 0.1 0  -0.005228545460709055 0.1 0  -0.004144879803371193 0.1 0  -0.00308053359010052 0.1 0  -0.002035162791981793 0.1 0  -0.001008429062594796 0.1 0  0 0.09900000000000277 0  0 0.09800000000000553 0  0 0.0970000000000083 0  0 0.09600000000001106 0  0 0.09500000000001382 0  0 0.09400000000001658 0  0 0.09300000000001934 0  0 0.09200000000002211 0  0 0.09100000000002488 0  0 0.09000000000002764 0  0 0.0890000000000304 0  0 0.08800000000003316 0  0 0.08700000000003592 0  0 0.0860000000000387 0  0 0.08500000000004146 0  0 0.08400000000004422 0  0 0.08300000000004698 0  0 0.08200000000004976 0  0 0.08100000000005252 0  0 0.08000000000005528 0  0 0.07900000000005804 0  0 0.0780000000000608 0  0 0.07700000000006357 0  0 0.07600000000006633 0  0 0.07500000000006909 0  0 0.07400000000007186 0  0 0.07300000000007462 0  0 0.07200000000007739 0  0 0.07100000000008015 0  0 0.07000000000008291 0  0 0.06900000000008567 0  0 0.06800000000008843 0  0 0.06700000000009119 0  0 0.06600000000009396 0  0 0.06500000000009673 0  0 0.06400000000009949 0  0 0.06300000000010225 0  0 0.06200000000010502 0  0 0.06100000000010778 0  0 0.06000000000011054 0  0 0.0590000000001133 0  0 0.05800000000011607 0  0 0.05700000000011884 0  0 0.0560000000001216 0  0 0.05500000000012437 0  0 0.05400000000012713 0  0 0.05300000000012989 0  0 0.05200000000013266 0  0 0.05100000000013542 0  0 0.05000000000013682 0  0 0.04900000000013574 0  0 0.04800000000013254 0  0 0.04700000000012949 0  0 0.04600000000012706 0  0 0.04500000000012462 0  0 0.04400000000012127 0  0 0.04300000000011839 0  0 0.04200000000011594 0  0 0.04100000000011352 0  0 0.04000000000010998 0  0 0.03900000000010728 0  0 0.03800000000010484 0  0 0.0370000000001024 0  0 0.03600000000009872 0  0 0.03500000000009507 0  0 0.03400000000009436 0  0 0.03300000000009159 0  0 0.03200000000008743 0  0 0.03100000000008411 0  0 0.0300000000000834 0  0 0.02900000000008034 0  0 0.02800000000007617 0  0 0.02700000000007319 0  0 0.02600000000007248 0  0 0.02500000000006906 0  0 0.02400000000006566 0  0 0.02300000000006494 0  0 0.02200000000006196 0  0 0.02100000000005779 0  0 0.02000000000005471 0  0 0.019000000000054 0  0 0.01800000000005068 0  0 0.01700000000004652 0  0 0.01600000000004377 0  0 0.01500000000004306 0  0 0.01400000000003944 0  0 0.01300000000003526 0  0 0.01200000000003283 0  0 0.01100000000003212 0  0 0.01000000000002817 0  0 0.009000000000024003 0  0 0.008000000000021878 0  0 0.007000000000021059 0  0 0.006000000000016895 0  0 0.00500000000001273 0  0 0.004000000000010953 0  0 0.0030000000000098 0  0 0.002000000000005636 0  0 0.001000000000001472 0  0.00100842906259162 0 0  0.002035162791975356 0 0  0.003080533590090699 0 0  0.00
[...]
<PointData  Scalars="f_57"> 
<DataArray  type="Float64"  Name="f_57"  format="ascii">-2.4713799758087424e-02  -2.4711562678627084e-02  -2.4722859398216002e-02  -2.4728981497207123e-02  1.8790572081045115e-01  1.8790543871186360e-01  1.8792038419821974e-01  1.8791883091164316e-01  1.8791587359545953e-01  1.8790458293794765e-01  1.8791394940595077e-01  1.8790201165910872e-01  1.8792299239013135e-01  1.8791315181418439e-01  1.8793675957000780e-01  1.8790847345318315e-01  1.8791827940294756e-01  1.8791879250106958e-01  1.8791757287256045e-01  1.8791760056044701e-01  1.8790499938615357e-01  1.8792114335949942e-01  1.8791028215700800e-01  1.8791159419451425e-01  1.8791671679365998e-01  1.8789934324774735e-01  1.8792298866711724e-01  1.8792758713013477e-01  1.8791859067519792e-01  1.8791557835731507e-01  1.8790268906115448e-01  1.8792885675102805e-01  1.8791341015466353e-01  1.8792243883381909e-01  1.8792169093973479e-01  1.8791951842629123e-01  1.8791241114771720e-01  1.8792129557630471e-01  1.8791537860469348e-01  1.8792597538838779e-01  1.8790951236560699e-01  1.8792163721008845e-01  1.8793278636210312e-01  1.8792308962849044e-01  1.8791320165046199e-01  1.8792313912757483e-01  1.8791954794992488e-01  1.8791848206163342e-01  1.8791610225549998e-01  1.8791717767330507e-01  1.8791881143997269e-01  1.8792382854135301e-01  1.8792153142371068e-01  1.8792002909353603e-01  1.8792604298643084e-01  1.8791834774508118e-01  1.8792612424439148e-01  1.8792468049455557e-01  1.8791022598133347e-01  1.8792260251235193e-01  1.8792045769409765e-01  1.8790728643746282e-01  1.8792067892218545e-01  1.8792443454353253e-01  1.8792506246479454e-01  1.8792300782520002e-01  1.8790958210994560e-01  1.8792359827248908e-01  1.8792219490478390e-01  1.8792552176035876e-01  1.8790783507640560e-01  1.8792291402479297e-01  1.8792218514923489e-01  1.8792117132614233e-01  1.8791815631236572e-01  1.8791840876918589e-01  1.8792370233719463e-01  1.8792337012585189e-01  1.8791378558855418e-01  1.8791393865645964e-01  1.8791447484589485e-01  1.8791837191814509e-01  1.8792286900985752e-01  1.8790338617587435e-01  1.8791926153312435e-01  1.8792368838065202e-01  1.8792106771490344e-01  1.8791219498791939e-01  1.8791742477941484e-01  1.8791772684152233e-01  1.8791860690482354e-01  1.8790350012092077e-01  1.8791612001866645e-01  1.8791272234691997e-01  1.8791324153781047e-01  1.8791115382563053e-01  1.8790838437657423e-01  1.8791949566500663e-01  1.8791840488687361e-01  1.8792016501399916e-01  1.8790442311628405e-01  1.8791926638253673e-01  1.8790278081527176e-01  1.8791940857148265e-01  1.8791833477719586e-01  1.7801655176578107e-01  1.6833627061297646e-01  1.5883535602203910e-01  1.4956244167255070e-01  1.4050108372780223e-01  1.3165406047036038e-01  1.2302365856041084e-01  1.1461299074912067e-01  1.0643509825348998e-01  9.8445194887379586e-02  9.0716712825502296e-02  8.3209231981219586e-02  7.5923675080040873e-02  6.8884200221712336e-02  6.2075286563943559e-02  5.5507349994612709e-02  4.9178332733985843e-02  4.3087975718795045e-02  3.7243685636833737e-02  3.1649642860309489e-02  2.6303938389886195e-02  2.1218429533159153e-02  1.6380888437755935e-02  1.1797943772784670e-02  7.4811108716454564e-03  3.4227360401421912e-03  -3.6784189346722798e-04  -3.8906289878256253e-03  -7.1548257773022574e-03  -1.0143819408775715e-02  -1.2855525645972895e-02  -1.5294967852778073e-02  -1.7456540856977728e-02  -1.9335130112738231e-02  -2.0946917849377918e-02  -2.2255052873180199e-02  -2.3285060546847543e-02  -2.4033271997861646e-02  -2.4494698759593383e-02  -2.4724767078273552e-02  -2.4741967575561821e-02  -2.4720241158063060e-02  -2.4724864353822571e-02  -2.4722274447527285e-02  -2.4721458471985407e-02  -2.4723221293718262e-02  -2.4736730943074815e-02  -2.4721958543279132e-02  -2.4721750206822640e-02  -2.4736254872438846e-02  -2.4717467395172565e-02  -2.4727717725717729e-02  -2.4718931668184792e-02  -2.4723401313843100e-02  -2.4720131043160200e-02  -2.4715866717276085e-02  -2.4728702122410996e-02  -2.4715490618484638e-02  -2.4718574506058300e-02  -2.4723205891884630e-02  -2.4717204266745212e-02  -2.4715864492670183e-02  -2.4719666286378918e-02  -2.4721922656685255e-02  -2.4714118461200328e-02  -2.4719228585640816e-02  -2.4720488415058171e-02  -2.4716667929253311e-02  -2.4717381301028921e-02  -2.4722194897985321e-02  -2.4714329529751260e-02  -2.4714926722719764e-02  -2.4721530968848864e-02  -2.4715422841678381e-02  -2.4717376827437694e-02  -2.4716884850145230e-02  -2.4716110202786825e-02  -2.4715034285229830e-02  -2.4713734098937009e-02  -2.4715651436361959e-02  -2.4716242536595406e-02  -2.4718965380468669e-02  -2.4714406418960101e-02  -2.4714049957046909e-02  -2.4714167705563322e-02  -2.4714657236558118e-02  -2.4718732688111481e-02  -2.4713757112074866e-02  -2.4717229017260811e-02  -2.4712188808962476e-02  -2.4716744172283454e-02  -2.4713947610710222e-02  -2.4714187995738369e-02  -2.4713188749258028e-02  -2.4712647145973279e-02  -2.4714027432299678e-02  -2.4717018656922152e-02  -2.4711657100438336e-02  -2.4713756721681739e-02  -2.4713483356852001e-02  -2.4714964015866057e-02  -2.4713183614175006e-02  -2.4713142848013531e-02  -2.4715109942491990e-02  -2.4712598846995067e-02  -2.4712575140014046e-02  -2.4713653585258351e-02  -2.4713299525170294e-02  -2.4712981832335345e-02  -2.4713749438201069e-02  -2.4712745689532471e-02  -2.4713090904994982e-02  -2.4714078003283121e-02  -2.4712656757348666e-02  -2.4712374185273969e-02  -2.4713718727362270e-02  -2.4712048569532980e-02  -2.4712381726125252e-02  -2.4712881278860531e-02  -2.4714017420013189e-02  -2.4712316045115548e-02  -2.4712977151957805e-02  -2.4712527966703098e-02  -2.4712353138977045e-02  -2.4712355591504236e-02  -2.4712317459654045e-02  -2.4712306783746495e-02  -2.4712496209269273e-02  -2.4712363627348771e-02  -2.4712022771183180e-02  -2.4712965526693394e-02  -2.4712091926782798e-02  -2.4711960896778070e-02  -2.4712125078337289e-02  -2.4712208568384877e-02  -2.4712183393590523e-02  -2.4712133864200559e-02  -2.4712068502010052e-02  -2.4711968488917286e-02  -2.4712238932151367e-02  -2.4712262753721910e-02  -2.4712285155068354e-02  -2.4712161985613726e-02  -2.4712022146504226e-02  -2.4711986327407044e-02  -2.4712005563031363e-02  -2.4711976371733717e-02  -2.4711932986950170e-02  -2.4712027431167106e-02  -2.4712104214931991e-02  -2.4711768203074302e-02  -2.4711776388914829e-02  -2.4711868065830350e-02  -2.4711949143395914e-02  -2.4711948656864630e-02  -2.4711802038746036e-02  -2.4712186197461381e-02  -2.4712023052481196e-02  -2.4711949675835884e-02  -2.4711972965761868e-02  -2.4712013033855035e-02  -2.4712136283287937e-02  -2.4711753402069332e-02  -2.4711826197027022e-02  -2.4711817738645579e-02  -2.4711886040510000e-02  -2.4712682487196318e-02  -2.4712419926457424e-02  -2.4712467946393080e-02  -2.4712505599631677e-02  -2.4712626470825352e-02  -2.4712592789752075e-02  -2.4712626182385511e-02  -2.4712661649088433e-02  -2.4712709675182611e-02  -2.4712766394644703e-02  -2.4712793779161427e-02  -2.4712817839592487e-02  -2.4712845802503828e-02  -2.4712873627962532e-02  -2.4712904473505850e-02  -2.4712933331091928e-02  -2.4712959001711079e-02  -2.4712982816384781e-02  -2.4713004156738848e-02  -2.4713015821870469e-02  -2.4713065370801531e-02  -2.4713061332790068e-02  -2.4713089244484648e-02  -2.4713116672941890e-02  -2.4713134938662153e-02  -2.4713155285274045e-02  -2.4713180647642007e-02  -2.4713200669669495e-02  -2.4713217898550667e-02  -2.4713224807658439e-02  -2.4713262321557728e-02  -2.4713268688983887e-02  -2.4713292207259371e-02  -2.4713307661734803e-02  -2.4713300107917849e-02  -2.4713348937013043e-02  -2.4713340541216443e-02  -2.4713389259828515e-02  -2.4713365294221173e-02  -2.4713408173020791e-02  -2.4713421688171699e-02  -2.4713405955975338e-02  -2.4713450686255162e-02  -2.4713437971844571e-02  -2.4713471789950116e-02  -2.4713486361311657e-02  -2.4713495190864129e-02  -2.4713507045153797e-02  -2.4713523805530501e-02  -2.4713534106840955e-02  -2.4713530813127858e-02  -2.4713546820731586e-02  -2.4713555946289791e-02  -2.4713559736535662e-02  -2.4713586401241383e-02  -2.4713594362228319e-02  -2.4713600356970060e-02  -2.4713612467603355e-02  -2.4713621034646371e-02  -2.4713627804946167e-02  -2.4713644313686563e-02  -2.4713652348438267e-02  -2.4713658541916376e-02  -2.4713652266170328e-02  -2.4713674177089834e-02  -2.4713676154995149e-02  -2.4713684097432145e-02  -2.4713695387854780e-02  -2.4713687199674456e-02  -2.4713711160246461e-02  -2.4713714004352925e-02  -2.4713716084269526e-02  -2.4713724795165100e-02  -2.4713720081988969e-02  -2.4713735278002177e-02  -2.4713741580996332e-02  -2.4713747036753692e-02  -2.4713749859827772e-02  -2.4713745061105529e-02  -2.4713759015873221e-02  -2.4713762979956314e-02  -2.4713760322317660e-02  -2.4713771769600771e-02  -2.4713770361172695e-02  -2.4713776739678308e-02  -2.4713778916225105e-02  -2.4713781573376427e-02  -2.4713784215237854e-02  -2.4713787037658700e-02  -2.4713788861232919e-02  -2.4713791281373902e-02  -2.4713793087728735e-02  -2.4713794240095177e-02  -2.4713796212251511e-02  -2.4713797072695574e-02  -2.4713798004537487e-02  -2.4713798790120076e-02  -2.4713799312189963e-02  -2.4713799644186775e-02  -2.4713799853554770e-02  -2.4713800208679675e-02  -2.4713800776553652e-02  -2.4713801557609681e-02  -2.4713802683657193e-02  -2.4713804071037487e-02  -2.4713805344516927e-02  -2.4713807730169169e-02  -2.4713809863470403e-02  -2.4713811725429486e-02  -2.4713817964165753e-02  -2.4713819526455585e-02  -2.4713819312874617e-02  -2.4713828478846178e-02  -2.4713825994009606e-02  -2.4713834947364548e-02  -2.4713842122717843e-02  -2.4713845019901624e-02  -2.4713844891792715e-02  -2.4713860670761527e-02  -2.4713859710297385e-02  -2.4713872389268490e-02  -2.4713875531324127e-02  -2.4713893572201273e-02  -2.4713907134042805e-02  -2.4713925280061892e-02  -2.4713902704899454e-02  -2.4713931406681613e-02  -2.4713944017636651e-02  -2.4713955642265448e-02  -2.4713957629727203e-02  -2.4713996887441348e-02  -2.4714019645462722e-02  -2.4714034327534280e-02  -2.4714044351743042e-02  -2.4714021341173543e-02  -2.4714122072417702e-02  -2.4714078010800177e-02  -2.4714121116397501e-02  -2.4714074496250262e-02  -2.4714166119625874e-02  -2.4714201392286070e-02  -2.4714223365336966e-02  -2.4714237815966312e-02  -2.4714253992759609e-02  -2.4714296664167398e-02  -2.4714290480257497e-02  -2.4714360107199861e-02  -2.4714370728464927e-02  -2.4714424470316358e-02  -2.4714457651595207e-02  -2.4714489650862700e-02  -2.4714534016843041e-02  -2.4714568199904103e-02  -2.4714607050192090e-02  -2.4714649010094573e-02  -2.4714669293050322e-02  -2.4714721177546941e-02  -2.4714770064481258e-02  -2.4714856067018037e-02  -2.4714838107715027e-02  -2.4715068383147326e-02  -2.4714899119537344e-02  -2.4715024811495526e-02  -2.4715141866338726e-02  -2.4715113909108653e-02  -2.4715388539299978e-02  -2.4715256913359629e-02  -2.4715238494689110e-02  -2.4715257704824641e-02  -2.4715436469996230e-02  -2.4715821805400492e-02  -2.4715932339103758e-02  -2.4715682077463483e-02  -2.4715667733914034e-02  -2.4715417764660543e-02  -2.4715623075188195e-02  -2.4715956476316948e-02  -2.4716078200416412e-02  -2.4715923266663734e-02  -2.4715946617625710e-02  -2.4716189014841426e-02  -2.4716560665076433e-02  -2.4716948564804286e-02  -2.4716897673422826e-02  -2.4716321532227532e-02  -2.4716002627417882e-02  -2.4716659523250899e-02  -2.4717039942002455e-02  -2.4716930018997687e-02  -2.4716994576504885e-02  -2.4718630133659273e-02  -2.4716983893717268e-02  -2.4717046721011160e-02  -2.4716813212639611e-02  -2.4717987709008279e-02  -2.4718730271867068e-02  -2.4719320329342962e-02  -2.4716029186995152e-02  -2.4717160940070017e-02  -2.4720440243401740e-02  -2.4717987349242826e-02  -2.4719023207916781e-02  -2.4719461402111804e-02  -2.4719323980270165e-02  -2.4719987410760223e-02  -2.4717588849153139e-02  -2.4717773524180722e-02  -2.4718569889574629e-02  -2.4720204016342198e-02  -2.4721392430990995e-02  -2.4720053955056668e-02  -2.4718358761159243e-02  -2.4720446921022095e-02  -2.4720699420297976e-02  -2.4719673452333599e-02  -2.4719372692302930e-02  -2.4722915121012375e-02  -2.4718360244358435e-02  -2.4724882499316543e-02  -2.4722428380445235e-02  -2.4723637526705425e-02  -2.4721913594094612e-02  -2.4722920518618161e-02  -2.4721379296603400e-02  -2.4726962683364453e-02  -2.4725957284018621e-02  -2.4634071060924013e-02  -2.4441901931109730e-02  -2.4151205438822650e-02  -2.3729320607041877e-02  -2.3185963478087882e-02  -2.2513752563544449e-02  -2.1709360068193743e-02  -2.0775579211790154e-02  -1.9703279884738467e-02  -1.8474571023759240e-02  -1.7123943352745325e-02  -1.5609745348715436e-02  -1.3944870568796902e-02  -1.2125777016811843e-02  -1.0149023472456857e-02  -8.0078349869054637e-03  -5.6965432468045691e-03  -3.2155617995224843e-03  -5.6212776945503088e-04  2.2755094972903597e-03  5.2870682005147348e-03  8.4842619992587884e-03  1.1867150912172135e-02  1.5456531888981101e-02  1.9233743426645203e-02  2.3214469958333331e-02  2.7395308374848232e-02  3.1783885700418658e-02  3.6381775605423550e-02  4.1194706273190766e-02  4.6225727530620868e-02  5.1477036974474311e-02  5.6955924104115346e-02  6.2664298559945486e-02  6.8597228661594137e-02  7.4764390017311583e-02  8.1179176606567732e-02  8.7831899930609136e-02  9.4732035460026842e-02  1.0188053707202838e-01  1.0928410128011133e-01  1.1694225016271556e-01  1.2486020181449260e-01  1.3304320627584362e-01  1.4149772004416397e-01  1.5021978013139470e-01  1.5922086071803521e-01  1.6850010263955020e-01  1.7805924921825178e-01  1.5040985742024270e-02  -2.1980070547000460e-02  3.3842244124275112e-02  -2.4579220322539515e-02  3.0577215526008117e-02  -8.0104971267137993e-03  -4.9319180104812526e-03  -2.3625282369603703e-02  -1.9759090704302974e-02  -1.7560887242249756e-02  -1.3179046470790002e-02  -2.4751786219907514e-02  -1.7277469389989638e-02  -2.4724155809508229e-02  -2.2192183378847971e-02  7.7723506054763348e-03  -1.0732701497307985e-02  -1.2557246627746427e-02  -2.2404299287798971e-02  -2.4589714991301331e-02  1.1996714205143760e-02  -2.2800776204623330e-02  7.9473979641181247e-02  -2.4295075070204154e-02  3.8461542346596267e-02  -2.3267147420098295e-02  -1.9900082409520677e-02  -2.4724518042954412e-02  -1.1925935720125097e-02  4.0759589153659730e-02  -1.2394049587132551e-04  8.1057237406544191e-02  -2.4741306074255096e-02  7.7712067049599196e-02  -2.2953061404952173e-02  -2.4729561256219362e-02  -1.5425778236474624e-02  -2.3875532181441762e-02  9.6448826811762325e-02  -2.4411607978258150e-02  -1.9787203278962977e-02  -1.6924249759460153e-02  -2.0393570442354330e-02  -8.3424729241600003e-04  -2.1047096431700153e-02  9.6038867214861892e-02  4.2709702280871914e-04  3.4158082064599679e-02  -2.4719570272296893e-02  -1.5617258308220376e-02  -2.4405621014657413e-02  -6.1573387312099390e-03  -2.3098392449082635e-02  -2.4727019914764420e-02  -2.4730735330585944e-02  -2.3419892905644918e-02  -2.3950212155623034e-02  9.6526996917825156e-03  2.4150085714958077e-02  -1.7533812269058945e-02  9.5808894271232681e-02  5.2998737738151419e-02  -2.4346817229830738e-02  -2.3318559619937729e-02  4.4661139272633953e-02  1.0248166739472649e-02  -2.4101742011269446e-02  -1.3601283265024517e-02  -2.4731113635423220e-02  9.4384444602883446e-03  -2.4681583883382735e-02  -1.9474247807689447e-02  -2.4701314876830024e-02  -2.4293977889722873e-02  -5.0293700649266786e-03  -2.1858211280077585e-02  -2.4715497179447210e-02  4.8278353296633608e-03  3.6654044366415096e-02  -1.4333500632284224e-02  -2.0874947754233569e-02  -2.4149833096272496e-02  8.6832492513719592e-02  -2.2850381738256695e-02  -2.0828513399921623e-02  -2.4731501417747857e-02  1.1484343089110827e-02  -1.2892780419945824e-02  2.5308383665851755e-03  1.0995212452288923e-01  1.1587942185094599e-01  5.6142181121766034e-02  -2.4718401636910477e-02  -2.3461623013743632e-02  -2.2385775595426850e-02  4.6894353639602301e-02  -2.3053037807744294e-02  -2.2044016401455833e-02  7.0808117769665516e-02  -6.7906055952253914e-03  1.1315017536938340e-01  -2.4724699488976251e-02  -2.4205907741562130e-02  -1.4035161861987531e-02  1.3334741752137834e-02  -2.1511400078508235e-02  -2.4625059501369305e-02  -2.4595288011955131e-02  8.2901242367333525e-02  -2.4676066358977698e-02  -9.8343939780063845e-03  5.0558095709573862e-02  1.9598685233319497e-02  -2.4722228715316159e-02  5.9950283198951224e-04  -2.4729801225174347e-02  -1.3902501292037581e-02  -2.4235148925758506e-02  2.2054782165854124e-02  -2.4423337103478857e-02  -2.0440183520815763e-02  5.4911283068557318e-02  -3.1023825109524235e-03  1.0452269020008131e-02  -1.9884985343482695e-02  -1.8727321731243397e-02  -9.5535976360748582e-03  -1.0040932017318163e-02  -2.1615062716806400e-02  3.4903819274760162e-02  -2.4160472009606727e-02  1.2693256708840986e-01  1.2200323070442470e-01  -2.4668291494679848e-02  -2.4744916844156094e-02  -2.4721221111691501e-02  6.6052130916076757e-02  -1.8932232670213059e-02  -2.4496666547316383e-02  -2.4719801548977613e-02  -2.4458911528027118e-02  -1.9734735506560408e-02  -2.4644822361483409e-02  -2.4191001071795566e-02  -2.4603052354810983e-02  -2.3709805715597245e-02  1.4725223880845637e-02  -2.0062744864729063e-02  -2.4156070371961474e-02  5.6536944825845703e-03  -2.4716947445399089e-02  -2.4720639826976209e-02  -2.4738336343770810e-02  -2.3023191269485190e-02  -2.3045145843401522e-02  1.2898028862324304e-01  -2.4749229093995018e-02  3.7818230108694131e-02  1.3102255744244817e-01  -2.3839195940878622e-02  6.1692105048406790e-02  -2.3507379060627952e-02  1.4803199307055218e-02  1.4968683278343983e-02  -1.3880531976490551e-02  7.4022410197045127e-02  1.2893146181709764e-01  -2.3937147965138367e-02  -1.4808163827991088e-02  -1.7965233368256377e-02  -9.6870963931397058e-04  -1.3036199835547383e-02  -2.4358513029083442e-02  -4.4783075107683666e-04  9.2720977631983628e-02  -1.9443512075361890e-02  -2.0300929717976608e-02  -2.0590551746687571e-02  -2.3594417170194400e-02  -6.7950980897388998e-03  -2.0890716640069255e-02  -1.2035688132250163e-02  -2.3755304110676119e-02  -2.1761898414223893e-02  -2.2958945711059182e-02  -2.2330370888373252e-02  -2.2259779947041117e-03  -2.3535703202439043e-02  -2.4743040083742125e-02  -2.4717375028117487e-02  -1.6506027923490079e-02  -2.4352033965333877e-02  1.3075626816373215e-01  -1.6319615105484318e-02  -1.9181150222383349e-02  -2.3832209554624000e-02  1.1703426814726289e-02  -2.4715155654279373e-02  1.3269933209698717e-01  2.7832709417793401e-02  -2.4746602337708909e-02  -2.3320429715064584e-02  -2.4713965464543970e-02  -2.4686125510195743e-02  -2.4719705715692694e-02  -2.4748399639876455e-02  1.3275351030089610e-01  -3.9020537450183772e-03  -1.5309531581264382e-02  -2.3921221058228886e-02  2.1450014707549560e-02  -2.2118508686768321e-02  -1.7012114881362603e-02  6.7648341904209569e-02  -2.4730843888140567e-02  1.3542899465572292e-01  6.8520215210548059e-03  1.3383655902884398e-01  -1.8322785380742942e-02  -1.3852202227171541e-02  -9.4091347165412200e-03  -1.9300996909203973e-02  2.5508747059247761e-02  -2.4636803524551124e-02  5.1017493095956448e-02  3.2319089474828464e-02  -2.4715959367231342e-02  -1.4638583201058293e-02  -1.0973681974816400e-02  -8.9512686419137583e-03  2.2085892590274950e-02  -3.2362720906676853e-03  3.6277578082972536e-02  -1.0891207939495221e-02  -2.2490773069068732e-02  -2.4534139318300653e-02  3.7428027304661715e-02  2.8264092486203281e-03  -2.4733692821813261e-02  -2.4575464368876955e-02  -2.4504350290092874e-02  -2.0437528726808034e-02  8.0071051589902603e-02  -2.4306697899832235e-02  -2.0889298705301464e-02  -5.3491932765667403e-03  -1.3964282991571842e-03  -2.4593430982501371e-02  2.7984855375839834e-02  2.9261617964720158e-02  -2.2772307582423788e-02  3.7681795277004111e-02  -2.4558322053028988e-02  -2.1644295917335812e-02  -1.0669615634513799e-02  -2.4709752065430871e-02  -2.1520434136217174e-02  7.3914207989578776e-02  -2.4275569746087980e-02  -4.9052207909284599e-03 