<?xml version="1.0"?>
<VTKFile type="UnstructuredGrid"  version="0.1"  >
<UnstructuredGrid>
<Piece  NumberOfPoints="851" NumberOfCells="1590">
<Points>
<DataArray  type="Float64"  NumberOfComponents="3"  format="ascii">0 0 0  0 0.1 0  0.5 0 0  -0.5 0.1 0  0.5 0.5 0  -0.5 0.5 0  0.4500000000001387 0.5 0  0.4000000000002774 0.5 0  0.3500000000004161 0.5 0  0.3000000000005548 0.5 0  0.2500000000006935 0.5 0  0.2000000000008322 0.5 0  0.1500000000009709 0.5 0  0.1000000000011096 0.5 0  0.05000000000124821 0.5 0  1.376121439022882e-12 0.5 0  -0.04999999999875171 0.5 0  -0.09999999999889042 0.5 0  -0.1499999999990291 0.5 0  -0.1999999999991677 0.5 0  -0.2499999999993064 0.5 0  -0.2999999999994452 0.5 0  -0.349999999999584 0.5 0  -0.3999999999997227 0.5 0  -0.4499999999998613 0.5 0  -0.5 0.4500000000001383 0  -0.5 0.4000000000002765 0  -0.5 0.3500000000004148 0  -0.5 0.3000000000005424 0  -0.5 0.2500000000004095 0  -0.5 0.2000000000002766 0  -0.5 0.1500000000001329 0  -0.4529151755211912 0.1 0  -0.4098209137472003 0.1 0  -0.3703790057285667 0.1 0  -0.3342799088572037 0.1 0  -0.3012403044828546 0.1 0  -0.2710008933676524 0.1 0  -0.2433243609539426 0.1 0  -0.2179934840253717 0.1 0  -0.1948094645674893 0.1 0  -0.1735903552251656 0.1 0  -0.1541696229940502 0.1 0  -0.1363948515315531 0.1 0  -0.1201265378528862 0.1 0  -0.1052370086856328 0.1 0  -0.09160940571332243 0.1 0  -0.07913677930792495 0.1 0  -0.06772124153067621 0.1 0  -0.05727320194216956 0.1 0  -0.04771066161332238 0.1 0  -0.03895857221170318 0.1 0  -0.03094824518311901 0.1 0  -0.02361681563678625 0.1 0  -0.01690674375080153 0.1 0  -0.01076536950411494 0.1 0  -0.00514449256048416 0.1 0  0 0.09500000000001382 0  0 0.09000000000002764 0  0 0.08500000000004147 0  0 0.08000000000005529 0  0 0.07500000000006912 0  0 0.07000000000008294 0  0 0.06500000000009676 0  0 0.06000000000011058 0  0 0.05500000000012441 0  0 0.05000000000013687 0  0 0.04500000000012466 0  0 0.04000000000011003 0  0 0.03500000000009511 0  0 0.03000000000008349 0  0 0.02500000000006912 0  0 0.02000000000005478 0  0 0.01500000000004312 0  0 0.01000000000002821 0  0 0.005000000000012744 0  0.005144492560467583 0 0  0.0107653695040789 0 0  0.01690674375074195 0 0  0.02361681563669731 0 0  0.03094824518299561 0 0  0.03895857221154557 0 0  0.04771066161312527 0 0  0.05727320194192707 0 0  0.06772124153037389 0 0  0.07913677930754594 0 0  0.09160940571285479 0 0  0.1052370086850634 0 0  0.1201265378522001 0 0  0.1363948515307339 0 0  0.1541696229930793 0 0  0.1735903552240211 0 0  0.1948094645661474 0 0  0.2179934840238062 0 0  0.2433243609521232 0 0  0.2710008933659069 0 0  0.3012403044813438 0 0  0.3342799088559867 0 0  0.37037900572771 0 0  0.4098209137467819 0 0  0.4529151755211257 0 0  0.5 0.04999999999990733 0  0.5 0.09999999999977893 0  0.5 0.1499999999996332 0  0.5 0.1999999999994874 0  0.5 0.2499999999993471 0  0.5 0.2999999999994734 0  0.5 0.349999999999605 0  0.5 0.3999999999997367 0  0.5 0.4499999999998684 0  0.187633336373548 0.218769418560002 0  0.09618701526790185 0.09807371248201593 0  -0.001996927078877346 0.3028966158377047 0  0.04964618129905982 0.0534807826846461 0  -0.1767233172437142 0.2768110172520974 0  -0.003602137264048472 0.1996170060302223 0  -0.1006010865530083 0.1965584046910424 0  0.04597431052632349 0.09837634146413246 0  -0.00257224628024208 0.1499586417086302 0  0.07157545995249656 0.1696485963697709 0  0.2067684601633765 0.1082310325688222 0  -0.0520423702183752 0.1510132676820798 0  0.02656262517350459 0.02702713244036379 0  0.02833218191483186 0.07267509141596704 0  -0.317760106670029 0.2393013561769358 0  0.3511919434831779 0.1928377653213773 0  -0.19239050077666 0.1849566612781544 0  0.02487163269543387 0.1241209396764011 0  0.1255013273164314 0.347703854450254 0  0.2782402832496362 0.333395339353887 0  0.05942001407242864 0.2469712478722117 0  0.09971771820793654 0.04564852351939509 0  -0.02728253040995263 0.1309558712222733 0  -0.00324814606896011 0.125041171770823 0  0.02082784965098206 0.04727176106684781 0  0.02129692127611257 0.09256931103623299 0  -0.09842320719947764 0.1456063359983912 0  -0.1067448558035674 0.375805142234677 0  0.1415625713728199 0.1540425309103407 0  -0.05282587433728989 0.2499917294363488 0  -0.2854386782246835 0.3680537333696367 0  0.1600963773789458 0.06405351675941753 0  0.307970634641707 0.09445274991214317 0  0.05364494955475724 0.0248945823126174 0  0.06214690975094839 0.134899835231083 0  -0.2570019885658705 0.1738804911932561 0  0.01569100520457551 0.06250000000010369 0  -0.05134957958945681 0.1964977663646977 0  0.03336019447296627 0.1635270659488004 0  -0.1417011903920102 0.1434092579859276 0  0.01446111774096779 0.07761079977766444 0  0.03956733875602708 0.3916072152280028 0  0.01517691633384039 0.01723846723485135 0  0.07157545995249677 0.07857521485320276 0  0.1165783922281199 0.2118891085089244 0  -0.3907671469959323 0.3284091081860396 0  -0.1259225929055958 0.2604369307306581 0  0.2554134725034896 0.1800001969341614 0  0.3882450074740147 0.2946932053917845 0  -0.07323425626513584 0.1297275917732699 0  0.01379163341579002 0.03263794160967828 0  -0.1936266624937461 0.3736907040482139 0  0.4029621626037874 0.114082329272477 0  0.06683695977321384 0.3228427196275734 0  0.0172066706990833 0.1098369862277752 0  0.04477182244483446 0.2081287365901656 0  0.01049183686732154 0.2486332797399574 0  -0.3798125790046458 0.1824126237614993 0  -0.02883806782768675 0.1729894460513704 0  -0.01383605662745823 0.1148136299269372 0  0.1151472792890922 0.2921959010826247 0  0.2037521992417426 0.3026780880975386 0  0.1046590203669102 0.141152374244679 0  0.2165208704605207 0.3938295032576303 0  0.2301578238426077 0.05466985921255635 0  0.1443773107404318 0.1052019473861909 0  0.3678956883828024 0.3971180687962335 0  0.07957448864767126 0.02869807132260321 0  -0.07115983596504094 0.3151443970463718 0  -0.04333461691251278 0.1193305119471335 0  -0.2303603891780651 0.2339468170114849 0  0.1288530202149155 0.02682965942640602 0  0.03698112338816267 0.0437579542056497 0  0.1236971087647463 0.07232861732126711 0  0.2713603025454854 0.2532044883182051 0  0.0715754599524967 0.1060076052556696 0  -0.02764729130869938 0.3591002046969433 0  0.04941488804093197 0.07699598115085091 0  0.01152087296649417 0.0523304635126306 0  -0.00257224628024208 0.1114658124274581 0  0.1995308803655471 0.1660568137896257 0  -0.2538760979633568 0.302652717604099 0  -0.3155200576820253 0.1596372169143142 0  0.03497806276470725 0.01436062731609478 0  0.01115576406115383 0.097500000000007 0  -0.1442796812477909 0.2161617381518599 0  -0.2064014742964306 0.1449434756395198 0  0.03109182114957815 0.05661976428047567 0  -0.3560468732566132 0.4109216490025028 0  0.0084999029551496 0.1749710502906595 0  -0.02636110880426342 0.1120576647995122 0  0.03127031855871683 0.1055663165543635 0  -0.13836622310507 0.319303133947357 0  0.00971173705973574 0.04293086143713899 0  0.0776674300753644 0.05390250625009203 0  0.09677399162992459 0.07016104090482339 0  -0.07837254114431393 0.1691903237786704 0  0.009933407813176537 0.08792963960827159 0  0.4221506648594489 0.2218585869839122 0  0.009998485461360484 0.1376742436252412 0  0.1840697015975654 0.03684943501875836 0  0.3523694804640069 0.06313378709895956 0  0.2858688272994615 0.05118831329143795 0  -0.02432088291699542 0.1492369659410047 0  -0.02781439617903289 0.2248716924074538 0  0.1040995985811164 0.427196104714899 0  0.2869256922764524 0.4164824933876254 0  0.04766284805440416 0.1178986366665931 0  -0.1216385291582308 0.1706552604412143 0  0.03524230187158716 0.0864541025882639 0  -0.06072331740785852 0.4274343533749581 0  0.1109694953696143 0.1789342971989725 0  0.009608654980715108 0.009604089628493387 0  0.1048134481497203 0.02209037900003218 0  0.06353961368912776 0.03849527809276963 0  0.08085285938898697 0.2071699239777419 0  -0.3135300576493941 0.3023448671979574 0  -0.421229196717712 0.2527787733232023 0  -0.1132049081105254 0.1227826053671822 0  0.2556376226264708 0.09868931961786188 0  -0.0126038746981571 0.1374358716396772 0  0.04139854887557211 0.1377976898814711 0  -0.1508976073033159 0.4291465479802197 0  -0.07549933545484219 0.22274279439395 0  -0.2407201020484705 0.4327947763978046 0  0.03475188457528147 0.2819486215775728 0  0.007692134984566374 0.02184963572257479 0  0.008295527871730499 0.06816227873006975 0  0.02462213428395 0.01040873020140194 0  0.3347639443151059 0.2589082623092416 0  0.007079660560894497 0.1181894569990912 0  0.1965154269909232 0.07057091470123925 0  0.01526858155592692 0.1555051893918836 0  -0.06062204254099426 0.1171053163374774 0  0.1757502405643247 0.1316994674260107 0  -0.1863236306718902 0.2298769274531996 0  0.4313680446339538 0.05975585305200084 0  0.4300054226413711 0.3535469146409876 0  0.02481738659031603 0.3401930593078147 0  0.06668382857289493 0.01637449700857508 0  -0.05157428689430185 0.1756060115226994 0  -0.1756234560308555 0.1329643943850283 0  0.1558659007491077 0.0264636937809105 0  0.02417460885260074 0.03791497685095051 0  -0.431096424862733 0.3813216458626998 0  -0.01992990508279435 0.2671885913883316 0  0.04039876657173355 0.0256333996268946 0  0.1657352114032568 0.2623511564237931 0  0.005778543931354001 0.1072606164561634 0  0.3000173173626087 0.1547633869529213 0  0.434387221159867 0.4307581347898719 0  -0.0923640345602916 0.1206513321526717 0  0.0858866098112758 0.1247482268323382 0  0.02460540265078699 0.0821402775016165 0  0.04985284767857781 0.01360882915445822 0  -0.0279569742825856 0.1968830935613969 0  0.1737464887584562 0.09540699329268842 0  -0.08298813923555681 0.2777274031444729 0  0.02926493929686774 0.1878164190023442 0  -0.04158142282874924 0.1374327998946807 0  -0.009195880991781466 0.1678475389902354 0  0.06088087790288531 0.08948379967293378 0  0.1520182631907295 0.1940126684779152 0  0.04307080027611287 0.06851138446739596 0  0.08296988665615138 0.3725475834348966 0  -0.1534499124279295 0.179184638196856 0  0.231443120987442 0.2155219331701521 0  0
[...]
<PointData  Scalars="f_56"> 
<DataArray  type="Float64"  Name="f_56"  format="ascii">-9.3974843826064566e-02  -9.4021983810435819e-02  -9.3728136788716318e-02  -9.3728603510420935e-02  -3.0707810948107195e-01  -3.0708793190966022e-01  -3.0752555603156034e-01  -3.0738275498533724e-01  -3.0713130167160207e-01  -3.0712516643572663e-01  -3.0701179357363007e-01  -3.0751349847334625e-01  -3.0749159625280953e-01  -3.0747531464227607e-01  -3.0719491000666038e-01  -3.0719898940774210e-01  -3.0743419951782130e-01  -3.0742073847798057e-01  -3.0745571112973391e-01  -3.0719169106949856e-01  -3.0736949774504724e-01  -3.0736596373883251e-01  -3.0714213519611427e-01  -3.0722221988695181e-01  -3.0732456731616398e-01  -2.5989577584963386e-01  -2.1809415292287249e-01  -1.8198680700862271e-01  -1.5165283728161980e-01  -1.2772158899363512e-01  -1.1007269158464855e-01  -9.8992580679272579e-02  -9.3795671709992520e-02  -9.3727064265762591e-02  -9.3450018556562542e-02  -9.3761536293760189e-02  -9.3923139713053910e-02  -9.3946762288348404e-02  -9.3919552208252821e-02  -9.3936649773680991e-02  -9.3945726478491628e-02  -9.3947671174338776e-02  -9.3989047561998759e-02  -9.3976617527675513e-02  -9.3993534466666639e-02  -9.3979816115069184e-02  -9.4005512240253303e-02  -9.3994415135953829e-02  -9.4002471525743564e-02  -9.3998253934607062e-02  -9.4007436267351932e-02  -9.4013207719898614e-02  -9.4015329671658418e-02  -9.4015634607286805e-02  -9.4016569770327976e-02  -9.4015452747927969e-02  -9.4010110380682979e-02  -9.4004301744663551e-02  -9.4002396054343587e-02  -9.3998542029942886e-02  -9.3994892084722503e-02  -9.3992125562275708e-02  -9.3989552838308593e-02  -9.3987257594468174e-02  -9.3985227807613217e-02  -9.3983403588079259e-02  -9.3981994764294377e-02  -9.3980356499018369e-02  -9.3979159300437251e-02  -9.3978133839996092e-02  -9.3977197437374635e-02  -9.3976497853443211e-02  -9.3975879036787807e-02  -9.3975454567829519e-02  -9.3975124350725484e-02  -9.3974920351645563e-02  -9.3974773731275302e-02  -9.3974580277188677e-02  -9.3974251017346480e-02  -9.3973279450008287e-02  -9.3972623725789114e-02  -9.3971034565917377e-02  -9.3969648426004651e-02  -9.3967687635472266e-02  -9.3964437456302286e-02  -9.3961250432397045e-02  -9.3957716668998478e-02  -9.3954187269004633e-02  -9.3944634976746627e-02  -9.3936861297452670e-02  -9.3949674945210795e-02  -9.3929055064474479e-02  -9.3906023562258370e-02  -9.3862961678003828e-02  -9.3895033670612915e-02  -9.3891891713595507e-02  -9.3832346965217958e-02  -9.3829300466904908e-02  -9.3796263978574865e-02  -9.3771535630467126e-02  -9.3795698403448646e-02  -9.5866095609380003e-02  -1.0071644811544500e-01  -1.0914516443722637e-01  -1.2159357123814570e-01  -1.3863702005089149e-01  -1.6056343546818558e-01  -1.8796395340606681e-01  -2.2116035131446682e-01  -2.6087382206073362e-01  -1.2376775747624144e-01  -9.6519691458831575e-02  -1.5445059930683541e-01  -9.4014923753862806e-02  -1.3875934477285176e-01  -1.1064334027730945e-01  -1.0802029275727164e-01  -9.5095692415942637e-02  -9.8949852852673603e-02  -1.0593287062908624e-01  -9.9827720402794043e-02  -9.8251783868115838e-02  -9.3949015519609158e-02  -9.4041737264958597e-02  -1.2200333579838202e-01  -1.1849765969790119e-01  -1.0458500193750721e-01  -9.6303003185178385e-02  -1.8336793473989871e-01  -1.7687170994150120e-01  -1.2961019072369687e-01  -9.4261153804988465e-02  -9.5752944445549118e-02  -9.5476624197322182e-02  -9.3949074406236455e-02  -9.4240408249484819e-02  -9.7181012817567303e-02  -1.9963210795502262e-01  -1.0549161262341096e-01  -1.2766124520070668e-01  -1.9380130048288940e-01  -9.5419521092007853e-02  -9.9075342815039935e-02  -9.3944399279729765e-02  -9.9224130239288486e-02  -1.0194240411623821e-01  -9.3967301470542525e-02  -1.0853266138228480e-01  -1.0289988456964647e-01  -9.6803275878418860e-02  -9.4001184272584373e-02  -2.1257675991798530e-01  -9.3968996636167909e-02  -9.4808518440068670e-02  -1.1919060777018652e-01  -1.6760759845484940e-01  -1.3127558417467458e-01  -1.1399775817566542e-01  -1.5732081632580686e-01  -9.5404460955254178e-02  -9.3963851604391052e-02  -1.9786233302143921e-01  -1.0220750918214541e-01  -1.6733682030962244e-01  -9.4814075646369969e-02  -1.1509197117685464e-01  -1.2866820230965231e-01  -1.0393572697518960e-01  -1.0292049714364898e-01  -9.4488165711057226e-02  -1.5193519220298465e-01  -1.5937972999931357e-01  -1.0189253257999184e-01  -2.1599802544147340e-01  -9.5297656630966246e-02  -9.8345726382141771e-02  -2.1872905029480524e-01  -9.3989811949597282e-02  -1.6028187607752420e-01  -9.4648087774211354e-02  -1.1990125724076663e-01  -9.4097005951394419e-02  -9.3938358031395108e-02  -9.5426838004360762e-02  -1.3782913196245267e-01  -9.6437315802525084e-02  -1.8852702691741166e-01  -9.4370043978870707e-02  -9.3967186328897986e-02  -9.4392133600525646e-02  -1.0955362044779092e-01  -1.5209184139946275e-01  -9.9024848109580788e-02  -9.3959108074075509e-02  -9.4144212494616644e-02  -1.1377594099583509e-01  -9.6929771449452154e-02  -9.3960500380817699e-02  -2.2637828152443315e-01  -1.0444399446912274e-01  -9.4284395509439747e-02  -9.5024625694785939e-02  -1.6205019442356020e-01  -9.3969544998752014e-02  -9.4228431657704337e-02  -9.4923496884399328e-02  -1.0141092619381999e-01  -9.4024618357890527e-02  -1.2790617421728501e-01  -9.7410401256421530e-02  -9.4455249321097140e-02  -9.6142866537153274e-02  -9.5276598380707095e-02  -9.8329424612318431e-02  -1.1833768374268246e-01  -2.4105194149591352e-01  -2.3303295224855700e-01  -9.6608964952764151e-02  -1.0143981951378465e-01  -9.4362107280311927e-02  -2.4052920681844314e-01  -1.0974203526555944e-01  -9.3973914187038723e-02  -9.4007780770399466e-02  -9.3983469033313810e-02  -1.1622641201093979e-01  -1.5203895665337591e-01  -1.2795043382150206e-01  -9.4787321905817595e-02  -9.9205473624174964e-02  -9.6763971599279283e-02  -9.8719747679408623e-02  -2.4177897735080403e-01  -1.1665795333206996e-01  -2.4492666646934760e-01  -1.4451043391538590e-01  -9.3973277044529263e-02  -9.3981232539250378e-02  -9.3968308811863785e-02  -1.4102736260987292e-01  -9.5108069222903685e-02  -9.6123875255531760e-02  -1.0056118626239095e-01  -9.4473175322587685e-02  -1.0255897997935753e-01  -1.1843606506688430e-01  -9.6164317657457379e-02  -1.8992621908330634e-01  -1.7704696218789026e-01  -9.3955113326294998e-02  -1.0311339976825412e-01  -9.5567160290534692e-02  -9.4150884520026859e-02  -9.3944366394386455e-02  -2.0370831279463719e-01  -1.3600408306614259e-01  -9.3940690991567807e-02  -1.3947021114090838e-01  -9.4337348435682616e-02  -1.0875037669102797e-01  -2.4490958029130966e-01  -9.4665730810048296e-02  -9.8863198073844763e-02  -9.4109545254527069e-02  -9.3955867896370879e-02  -1.0918682343482522e-01  -9.7935497473109243e-02  -1.3992042286216488e-01  -1.0852308949818372e-01  -9.6401051155949644e-02  -1.0227307487967666e-01  -9.5066563338177076e-02  -1.1513438178470188e-01  -9.4120537435865320e-02  -1.9934303852305485e-01  -1.0324828336623797e-01  -1.2375405807304804e-01  -1.1799227061344549e-01  -9.4305387376669256e-02  -2.4980404206340615e-01  -9.8259763406011391e-02  -9.8886934788829525e-02  -1.0332897796552878e-01  -1.2119369035867639e-01  -1.1398050147391937e-01  -9.8787165813030181e-02  -9.6020838491685717e-02  -1.3420006458171094e-01  -9.3977054961267015e-02  -1.0485170039267339e-01  -9.3991389664791980e-02  -9.3949158490697945e-02  -1.6559412652784497e-01  -1.7913704125955637e-01  -2.4210090536455284e-01  -9.4947791559562483e-02  -1.2424732145342925e-01  -1.3308756885994991e-01  -9.3971972629986203e-02  -9.6188478140456779e-02  -9.5549431761211404e-02  -1.0369543615547458e-01  -1.7368214299630269e-01  -9.7967144143489046e-02  -1.0200942189991263e-01  -1.0217291458538010e-01  -1.0715731692062347e-01  -9.3955128354340611e-02  -1.4574503684876766e-01  -2.5706149471505368e-01  -1.2956133155846877e-01  -1.1163599122665251e-01  -9.7639475237255788e-02  -1.4362919731991858e-01  -9.4601324073431553e-02  -9.3959210544738700e-02  -1.1266535451814279e-01  -9.3983922774640280e-02  -1.4758078587135959e-01  -9.6757999543872694e-02  -9.4295763894503490e-02  -1.1078647411275788e-01  -1.8717776662604491e-01  -9.4110353073757744e-02  -9.4510982161240667e-02  -1.3878954048055805e-01  -1.8596223975504567e-01  -9.5577988397183539e-02  -1.0849557577851371e-01  -9.9991278893900901e-02  -9.3973893306944195e-02  -9.3972486180417397e-02  -1.3597730700772681e-01  -9.4793487761165030e-02  -9.4649649619458223e-02  -1.1211268190769162e-01  -2.6862364520446669e-01  -9.4182753655870727e-02  -1.3239539160254477e-01  -9.3959592278704179e-02  -9.6782667215387155e-02  -9.4112626620834361e-02  -9.4457393088795555e-02  -1.6651943871658687e-01  -1.9415322245352565e-01  -2.5610964204655878e-01  -2.5728313281222315e-01  -1.5449077427574642e-01  -9.6814172266018503e-02  -1.0117711463399399e-01  -1.2512091828775593e-01  -1.8099913704101808e-01  -9.3976984047517656e-02  -9.6503892475268097e-02  -1.6765571993223191e-01  -9.3960282300881645e-02  -9.6071173979066726e-02  -1.1773378306136846e-01  -9.4221397136698887e-02  -9.5943686965242775e-02  -1.9330343577703485e-01  -9.4016860383555778e-02  -9.3942467870269913e-02  -2.5665224567625777e-01  -9.4064178083546168e-02  -1.4376659428481764e-01  -1.0788787409433205e-01  -1.3353230725126755e-01  -9.5730844124887887e-02  -9.4646555122313153e-02  -9.4574739857619397e-02  -1.1698415597134301e-01  -9.4048892732808226e-02  -1.9181241161860521e-01  -9.4856394453496279e-02  -1.2667814714888279e-01  -1.5691529664929474e-01  -2.3585697120690446e-01  -1.0427732529826225e-01  -9.3993013796309519e-02  -9.3937012340931811e-02  -9.3957286431915199e-02  -1.5289069294681482e-01  -2.0895144272122593e-01  -9.8637552105430265e-02  -1.3079800435122188e-01  -1.0661684970051401e-01  -1.1989163739259559e-01  -1.0248457186523251e-01  -9.3971679008858736e-02  -9.4237645790489391e-02  -9.4191338975297759e-02  -9.6157457905987939e-02  -9.4549731475157009e-02  -1.4562188131979528e-01  -2.5861014396143250e-01  -9.6937594605050761e-02  -9.4998489860027430e-02  -9.3980314894162476e-02  -9.4161420948386906e-02  -1.0078599417926927e-01  -9.7371245991553834e-02  -1.1002022084251351e-01  -9.4710237338524406e-02  -1.3997667218164581e-01  -1.7328313161355077e-01  -1.1038128574140926e-01  -9.5421863530896087e-02  -9.5367079863948462e-02  -1.0458572794221598e-01  -9.3974769586053233e-02  -9.4612826650686904e-02  -1.2566668672711653e-01  -9.3959311047968577e-02  -1.1115061725440793e-01  -1.0143414264906697e-01  -9.4018976600826476e-02  -9.4090449373738991e-02  -1.0880063758850464e-01  -9.3975802137494541e-02  -9.3953241176642471e-02  -1.5832900443712028e-01  -1.0007786683097256e-01  -9.4638973702621379e-02  -1.1793551857639539e-01  -2.0332147593344979e-01  -9.3995986437875212e-02  -1.0501244575268270e-01  -9.3987988770931077e-02  -2.1982944965775722e-01  -1.0471877444335537e-01  -9.3975192367228247e-02  -9.4075931957862596e-02  -1.5957237762678209e-01  -9.6283704508162066e-02  -9.5587643607671552e-02  -9.3968182666039943e-02  -1.1262735117338572e-01  -9.4103379981453475e-02  -1.9720735420477725e-01  -2.5868649361402646e-01  -9.4597826171994970e-02  -9.7680153693569777e-02  -9.4132895104743194e-02  -1.1787892192010142e-01  -9.3959486038684717e-02  -9.6429706205232307e-02  -9.3959814523698670e-02  -1.0518873731071077e-01  -9.4125982941056313e-02  -9.5735370298618575e-02  -1.0968370426226517e-01  -1.0989628480851207e-01  -9.4447404177207941e-02  -9.4644456573458310e-02  -9.3984689659840248e-02  -9.4069968988719888e-02  -9.4162222727784378e-02  -9.3977291755503664e-02  -9.7203423302401268e-02  -9.3965586966219108e-02  -9.3950101849346268e-02  -1.3548252293732999e-01  -1.0173400156373558e-01  -9.7456054054144203e-02  -1.9669148598076205e-01  -1.6601893030295092e-01  -1.0381446881434093e-01  -9.3969567470767540e-02  -9.4112496947833704e-02  -9.8414515710980630e-02  -9.3934307613784615e-02  -9.4659975284715744e-02  -2.6306454581131139e-01  -1.2477747445172033e-01  -1.0842308771352237e-01  -9.4360247767482919e-02  -2.3494393204603115e-01  -1.3281462765083210e-01  -9.3962586020220687e-02  -2.1573573909824631e-01  -1.8634694351046410e-01  -9.9368520926333623e-02  -2.6775084101469920e-01  -1.7002821136731136e-01  -1.1301943449308136e-01  -9.5806430810526477e-02  -9.4044324551974937e-02  -9.8820332307723704e-02  -9.4146994721550720e-02  -1.0302798312176580e-01  -1.5674798164867029e-01  -9.6944384563660210e-02  -9.9022508549842736e-02  -2.7130396643555188e-01  -9.3960069960608406e-02  -9.4525747857385475e-02  -9.9836348473069436e-02  -9.3953803702579969e-02  -1.0079150239837989e-01  -9.4064368875652588e-02  -9.4894501933727671e-02  -9.3977038443020286e-02  -1.2166843577795257e-01  -9.7307731630444469e-02  -2.6779538390781576e-01  -2.6992607420069853e-01  -9.4900266521489501e-02  -9.3968043358780576e-02  -1.2569321160142999e-01  -9.4005760786024795e-02  -9.3974762273701551e-02  -2.1175437888604659e-01  -2.2635564764047730e-01  -9.4271348388719478e-02  -9.4291963958513483e-02  -1.8848282078512024e-01  -9.3950582276281586e-02  -1.4772297880988428e-01  -9.9026426477963253e-02  -1.1306665308209299e-01  -2.7207938242367885e-01  -9.3974113794349917e-02  -1.4067167183109894e-01  -1.1339330829298860e-01  -9.4267122865208913e-02  -9.4514185403103176e-02  -9.4286374742782467e-02  -9.4384165223539762e-02  -1.2981648727505457e-01  -9.3967252943840174e-02  -1.1024002175484977e-01  -9.6061667410238485e-02  -1.6911053487451297e-01  -1.2838855083802539e-01  -2.1590468577772684e-01  -9.3982748460781224e-02  -9.7511349301029684e-02  -1.5429300836877544e-01  -9.5345310412696296e-02  -9.6107920215063758e-02  -9.4552561582756309e-02  -9.4110452456097823e-02  -9.3977357920321289e-02  -9.4760817220180413e-02  -1.7860144505378506e-01  -9.4065872469004594e-02  -9.6393076140122533e-02  -1.3629597350202627e-01  -2.2526151696214020e-01  -1.0946578362670026e-01  -9.4018865950566993e-02  -2.6950875637563609e-01  -9.4003269216415788e-02  -2.1641557928078725e-01  -1.1468540711204715e-01  -9.5289009606730743e-02  -9.5429479237163370e-02  -1.0414128433779050e-01  -1.1243959278288322e-01  -9.4366819242489214e-02  -9.8480441773290461e-02  -1.9578813748782242e-01  -1.0039249157276264e-01  -9.4118036582751072e-02  -9.4165509656868734e-02  -9.4015689868854418e-02  -9.3938206618983305e-02  -1.1458863234201587e-01  -1.4509440650465291e-01  -1.0095213085988911e-01  -9.5260165231763616e-02  -1.2542220874276536e-01  -9.8040619821760142e-02  -9.9981046447891242e-02  -1.2240026662739924e-01  -1.3585266017126166e-01  -1.0248608344952882e-01  -9.4001298203258088e-02  -2.1641460061013168e-01  -1.0013008209288110e-01  -9.3971829731243267e-02  -9.4689510678787420e-02  -9.4670981063507478e-02  -9.3975571664336038e-02  -9.9578166318462474e-02  -9.3981651023086255e-02  -9.7012867033407987e-02  -9.4003956819395704e-02  -9.3953133936593200e-02  -1.0017681946236774e-01  -2.6872416123269205e-01  -9.3987790623063380e-02  -9.4587546775210196e-02  -9.4959285563410475e-02  -9.4087147102649343e-02  -1.1393748936539456e-01  -2.1779101874757237e-01  -1.0687333740462855e-01  -9.4914697055554095e-02  -9.3972307187580331e-02  -1.0436345674254593e-01  -9.4220941319906534e-02  -9.8715863669682755e-02  -9.3968003019533938e-02  -2.0920086834684648e-01  -1.0950583229227444e-01  -9.7704551928851302e-02  -9.4146384354136831e-02  -1.1630418700232155e-01  -1.2672868493739536e-01  -1.5494546026339254e-01  -2.2239416108278304e-01  -2.6893714596669183e-01  -2.7276813058861282e-01  -1.4009359839478613e-01  -9.3961526304066581e-02  -9.5590392650025210e-02  -1.0423730972297673e-01  -9.9951695490580625e-02  -9.4040372176378173e-02  -1.0301165761471674e-01  -9.5761432961526005e-02  -1.7763634345357540e-01  -2.7517535113671054e-01  -9.5897577064669462e-02  -9.3949981826701418e-02  -2.2481597838783074e-01  -9.6493358121485642e-02  -9.3986333178918413e-02  -1.5252092044117049e-01  -9.4274743874031897e-02  -1.4793501331565634e-01  -1.3300888224071181e-01  -9.3949655490653136e-02  -2.6695327123481721e-01  -9.7835694996179418e-02  -9.4712993705654641e-02  -9.3964781459703370e-02  -1.3599419895854786e-01  -1.1464570034513637e-01  -1.0042570634869971e-01  -1.4413826633758114e-01  -1.1057450956865791e-01  -9.3985234669002493e-02  -9.3940015425152817e-02  -1.1332541933084445e-01  -9.4736671103057196e-02  -9.4375375012869869e-02  -9.3971515912928918e-02  -9.3963613934770943e-02  -2.3368693301984345e-01  -2.1698781279953891e-01  -2.7875077686396704e-01  -1.7953996310808654e-01  -9.3961508593775708e-02  -1.1416281764629771e-01  -1.0396897059205625e-01  -1.1740957218597697e-01  -1.0558223157043677e-01  -1.1162408910321601e-01  -1.0213956549726400e-01  -9.4302169100672059e-02  -1.5616284824952262e-01  -2.7391380923966019e-01  -9.3964770677988002e-02  -9.5534853978676670e-02  -1.3568923009963790e-01  -1.2827128370941074e-01  -9.4425370259307612e-02  -1.0234265659998312e-01  -9.4478401680245030e-02  -9.7853734173163079e-02  -1.6968216382007573e-01  -9.6107725126299864e-02  -9.8885704313636288e-02  -9.3967989005452682e-02  -1.1790869322124158e-01  -1.6846214376915103e-01  -9.7668690121095900e-02  -9.5105221227711839e-02  -9.9779242147766858e-02  -1.1099771346916765e-01  -1.7938541838101951e-01  -9.5245755833222367e-02  -1.4926073068660756e-01  -1.0026516590959689e-01  -2.7142361883500588e-01  -1.2369481404935559e-01  -1.3365484410699527e-01  -1.0108428122544946e-01  -1.0071095257984784e-01  -9.7280497388681053e-02  -1.2097395377058727e-01  -9.3966520173389287e-02  -9.7409472278508782e-02  -9.3974390990506335e-02  -1.7064034518358476e-01  -9.3995867633112129e-02  -1.2330067854753889e-01  -9.4688099128973788e-02  -1.2169590766935928e-01  -1.5395033916778803e-01  -9.3946388975851669e-02  -1.6272572886345124e-01  -9.4073289976498123e-02  -9.9949671337175194e-02  -1.3494198875467009e-01  -1.0621957791847729e-01  -1.5780477882216443e-01  -1.0597577090922980e-01  -1.3587371155599465e-01  -1.0025420082128912e-01  -1.3244163310652626e-01  -9.7473529480831489e-02  -2.7681628186514168e-01  -2.3164658871430069e-01  -9.3975319202860896e-02  -1.4945075436557934e-01  -9.4854979776748616e-02  -1.0090684831323919e-01  -1.0598067131541271e-01  -9.6757110243222172e-02  -9.7767508626567107e-02  -9.3962843040741581e-02  -1.8141625540982856e-01  -1.8051181377418163e-01  -9.3948505335542498e-02  -9.4265100318885728e-02  -9.4200752856439918e-02  -9.3938718642008354e-02  -9.3992138425696731e-02  -9.3961378058010733e-02  -9.7409314338700481e-02  -1.7459677832165960e-01  -1.2224471419695133e-01  -1.2403466362589842e-01  -9.5476468454654614e-02  -1.0824395568990047e-01  -1.0407936318920895e-01  -9.8970722383805693e-02  -1.2385646819248032e-01  -9.6617552791043906e-02  -9.5374493832217216e-02  -1.4181114693855598e-01  -1.7024220103880802e-01  -2.4156976587708764e-01  -1.0674510557273717e-01  -9.6398177754735900e-02  -9.6325731617669177e-02  -9.6659104787116729e-02  -9.4682984134550174e-02  -9.4123630376223510e-02  -2.4122823559965023e-01  -9.9681404512572888e-02  -1.1738234667483349e-01  -1.0774845260015140e-01  -9.6508795713189113e-02  -1.2224228314549665e-01  -9.4349933237452596e-02  -2.3897627402520041e-01  -9.4719399702840004e-02  -1.4782229035450148e-01  -1.2734360419587112e-01  -2.0261588870718628e-01  -9.4086841081265332e-02  -1.6973143354036199e-01  -1.2013924359315127e-01  -9.4957517837905889e-02  -1.0375349482176971e-01  -9.8002174400441427e-02  -9.8617535929877417e-02  -9.3976273752292144e-02  -9.4136049480538234e-02  -1.1526644384304963e-01  -1.0752619189723832e-01  -2.2810452083807212e-01  -1.3332979086281099e-01  -1.0729157642297618e-01  -1.2182357262833719e-01  -1.4825274498335361e-01  -9.5437537100000427e-02  -9.4096371786767691e-02  -9.3971931411538354e-02  -1.0612952033507399e-01  -1.0994202464107911e-01  -1.9440681441084345e-01  -1.1646154262896267e-01  -1.0944957804683673e-01  -9.4915273423605243e-02  -9.4147911691792013e-02  -9.4290504272916201e-02  -1.1900325381652981e-01  -9.3989115134316778e-02  -1.0253877221131244e-01  -1.7245090144324157e-01  -9.396305361411